ITEM: TIMESTEP
0
ITEM: NUMBER OF ATOMS
4
ITEM: BOX BOUNDS xy xz yz pp pp pp
0.0000000000000000e+00 4.1176746671000002e+00 8.0738719000000000e-02
0.0000000000000000e+00 4.0361284802000004e+00 0.0000000000000000e+00
0.0000000000000000e+00 4.0369359481000000e+00 0.0000000000000000e+00
ITEM: ATOMS id type xs ys zs fx fy fz
1 1 0 0 0 2.37119e-10 -1.74502e-11 2.36786e-10
4 1 0.5 0 0.5 -2.3712e-10 1.74504e-11 -2.36786e-10
3 1 0.5 0.5 0 -2.3712e-10 1.74502e-11 2.36786e-10
2 1 -1.73472e-18 0.5 0.5 2.3712e-10 -1.74505e-11 -2.36786e-10
ITEM: TIMESTEP
1
ITEM: NUMBER OF ATOMS
4
ITEM: BOX BOUNDS xy xz yz pp pp pp
0.0000000000000000e+00 4.1176746671000002e+00 8.0738719000000000e-02
0.0000000000000000e+00 4.0361284802000004e+00 0.0000000000000000e+00
0.0000000000000000e+00 4.0369359481000000e+00 0.0000000000000000e+00
ITEM: ATOMS id type xs ys zs fx fy fz
4 1 0.5 4.54416e-13 0.5 5.39707e-13 -7.26569e-12 -1.07113e-12
2 1 6.18256e-12 0.5 0.5 -5.41012e-13 7.26543e-12 -1.07117e-12
3 1 0.5 0.5 6.16477e-12 5.42524e-13 -7.26462e-12 1.07117e-12
1 1 6.18255e-12 1 6.16478e-12 -5.4122e-13 7.26484e-12 1.0711e-12
