ITEM: TIMESTEP
0
ITEM: NUMBER OF ATOMS
4
ITEM: BOX BOUNDS xy xz yz pp pp pp
0.0000000000000000e+00 4.0369359481000000e+00 0.0000000000000000e+00
0.0000000000000000e+00 4.1176746671000002e+00 0.0000000000000000e+00
0.0000000000000000e+00 4.0361284802000004e+00 8.0738719000000000e-02
ITEM: ATOMS id type xs ys zs fx fy fz
1 1 0 0 0 2.36786e-10 2.37119e-10 -1.74501e-11
2 1 0 0.5 0.5 2.36786e-10 -2.37119e-10 1.74499e-11
3 1 0.5 0.5 0 -2.36786e-10 -2.37119e-10 1.74502e-11
4 1 0.5 -1.73472e-18 0.5 -2.36786e-10 2.3712e-10 -1.745e-11
ITEM: TIMESTEP
1
ITEM: NUMBER OF ATOMS
4
ITEM: BOX BOUNDS xy xz yz pp pp pp
0.0000000000000000e+00 4.0369359481000000e+00 0.0000000000000000e+00
0.0000000000000000e+00 4.1176746671000002e+00 0.0000000000000000e+00
0.0000000000000000e+00 4.0361284802000004e+00 8.0738719000000000e-02
ITEM: ATOMS id type xs ys zs fx fy fz
2 1 6.16478e-12 0.5 0.5 1.07252e-12 5.42379e-13 -7.26516e-12
1 1 6.16478e-12 6.18254e-12 1 1.07235e-12 -5.41337e-13 7.26523e-12
3 1 0.5 0.5 4.54411e-13 -1.07218e-12 5.39746e-13 -7.26479e-12
4 1 0.5 6.18255e-12 0.5 -1.07254e-12 -5.40821e-13 7.26462e-12
