ITEM: TIMESTEP
0
ITEM: NUMBER OF ATOMS
4
ITEM: BOX BOUNDS xy xz yz pp pp pp
0.0000000000000000e+00 4.0771054543999998e+00 0.0000000000000000e+00
0.0000000000000000e+00 4.0369359481000000e+00 0.0000000000000000e+00
0.0000000000000000e+00 4.0369359481000000e+00 0.0000000000000000e+00
ITEM: ATOMS id type xs ys zs fx fy fz
1 1 0 0 0 2.08167e-17 2.30419e-10 2.30419e-10
2 1 0 0.5 0.5 -6.93889e-18 -2.30419e-10 -2.30419e-10
3 1 0.5 0.5 0 -6.93889e-18 -2.30419e-10 2.30419e-10
4 1 0.5 0 0.5 0 2.30419e-10 -2.30419e-10
ITEM: TIMESTEP
1
ITEM: NUMBER OF ATOMS
4
ITEM: BOX BOUNDS xy xz yz pp pp pp
0.0000000000000000e+00 4.0771054543999998e+00 0.0000000000000000e+00
0.0000000000000000e+00 4.0369359481000000e+00 0.0000000000000000e+00
0.0000000000000000e+00 4.0369359481000000e+00 0.0000000000000000e+00
ITEM: ATOMS id type xs ys zs fx fy fz
1 1 5.53968e-19 6.19286e-12 6.19286e-12 0 -8.00141e-17 -1.58309e-16
2 1 0 0.5 0.5 0 2.38958e-16 1.78362e-16
3 1 0.5 0.5 6.19286e-12 3.46945e-17 2.40693e-16 -3.49003e-16
4 1 0.5 6.19286e-12 0.5 -1.38778e-17 -3.54507e-16 3.25166e-16
