
4 atoms
1 atom types
   0.0000000000    3.7596859220 xlo xhi
   0.0000000000    3.7596859220 ylo yhi
   0.0000000000    3.7596859220 zlo zhi
   0.0000000000    0.0000000000    0.0000000000 xy xz yz

Atoms # atomic

     1      1    0.0000000000    0.0000000000    0.0000000000
     2      1    0.0000000000    1.8798429610    1.8798429610
     3      1    1.8798429610    1.8798429610    0.0000000000
     4      1    1.8798429610    0.0000000000    1.8798429610
