 running   14 mpi-ranks, with    2 threads/rank, on    1 nodes
 distrk:  each k-point on   14 cores,    1 groups
 distr:  one band on    1 cores,   14 groups
 vasp.6.4.2 20Jul23 (build Apr 22 2024 22:35:45) complex                         
 POSCAR found type information on POSCAR Al
 POSCAR found :  1 types and       4 ions
 scaLAPACK will be used
 -----------------------------------------------------------------------------
|                                                                             |
|               ----> ADVICE to this user running VASP <----                  |
|                                                                             |
|     You have a (more or less) 'small supercell' and for smaller cells       |
|     it is recommended to use the reciprocal-space projection scheme!        |
|     The real-space optimization is not efficient for small cells and it     |
|     is also less accurate ...                                               |
|     Therefore, set LREAL=.FALSE. in the INCAR file.                         |
|                                                                             |
 -----------------------------------------------------------------------------

 LDA part: xc-table for Pade appr. of Perdew
 POSCAR, INCAR and KPOINTS ok, starting setup
 FFT: planning ... GRIDC
 FFT: planning ... GRID_SOFT
 FFT: planning ... GRID
 WAVECAR not read
 entering main loop
       N       E                     dE             d eps       ncg     rms          rms(c)
DAV:   1    -0.242279403724E+01   -0.24228E+01   -0.38435E+03 15498   0.522E+02
DAV:   2    -0.150073147406E+02   -0.12585E+02   -0.12198E+02 22610   0.478E+01
DAV:   3    -0.150767034268E+02   -0.69389E-01   -0.69330E-01 20216   0.483E+00
DAV:   4    -0.150768563439E+02   -0.15292E-03   -0.15292E-03 25326   0.221E-01
DAV:   5    -0.150768564284E+02   -0.84466E-07   -0.84356E-07 20496   0.410E-03    0.263E+00
RMM:   6    -0.150245980697E+02    0.52258E-01   -0.53154E-03 15400   0.424E-01    0.154E+00
RMM:   7    -0.149863656238E+02    0.38232E-01   -0.16260E-02 15400   0.709E-01    0.226E-01
RMM:   8    -0.149863351555E+02    0.30468E-04   -0.58201E-04 15400   0.160E-01    0.279E-02
RMM:   9    -0.149863409095E+02   -0.57540E-05   -0.99110E-05 15400   0.692E-02    0.236E-02
RMM:  10    -0.149863418704E+02   -0.96086E-06   -0.22054E-05 15400   0.330E-02    0.229E-02
RMM:  11    -0.149863374462E+02    0.44242E-05   -0.43137E-06 15134   0.127E-02    0.531E-03
RMM:  12    -0.149863373353E+02    0.11089E-06   -0.11529E-06 11431   0.805E-03
   1 F= -.14986337E+02 E0= -.14987071E+02  d E =-.149863E+02
 curvature:   0.00 expect dE= 0.000E+00 dE for cont linesearch  0.000E+00
 trial: gam= 0.00000 g(F)=  0.368E-63 g(S)=  0.000E+00 ort = 0.000E+00 (trialstep = 0.100E+01)
 search vector abs. value=  0.100E-09
 reached required accuracy - stopping structural energy minimisation
