<?xml version="1.0" encoding="ISO-8859-1"?>
<modeling>
 <generator>
  <i name="program" type="string">vasp </i>
  <i name="version" type="string">6.4.2  </i>
  <i name="subversion" type="string">20Jul23 (build Apr 22 2024 22:35:45) complex                          parallel </i>
  <i name="platform" type="string">LinuxGNU </i>
  <i name="date" type="string">2024 05 26 </i>
  <i name="time" type="string">16:04:45 </i>
 </generator>
 <incar>
  <i type="string" name="SYSTEM">Al fcc relaxation</i>
  <i type="string" name="PREC">Accurate</i>
  <i type="string" name="ALGO">Fast</i>
  <i type="int" name="NELM">    60</i>
  <i type="int" name="NELMIN">     4</i>
  <i type="int" name="IBRION">     2</i>
  <i name="EDIFF">      0.00000100</i>
  <i type="int" name="NSW">   100</i>
  <i type="int" name="ISIF">     2</i>
  <i name="ENCUT">    400.00000000</i>
  <i type="string" name="LREAL">Auto</i>
  <i type="int" name="ISMEAR">     1</i>
  <i name="SIGMA">      0.20000000</i>
  <i name="KSPACING">      0.08000000</i>
  <i type="logical" name="LWAVE"> F  </i>
  <i type="logical" name="LCHARG"> F  </i>
 </incar>
 <primitive_cell>
  <structure name="primitive_cell" >
   <crystal>
    <varray name="basis" >
     <v>      -2.00934215      -0.00000000      -2.01946485 </v>
     <v>      -2.00934215       0.00000000       2.01946485 </v>
     <v>       2.00934215       2.01946485      -0.00000000 </v>
    </varray>
    <i name="volume">     16.38915211 </i>
    <varray name="rec_basis" >
     <v>      -0.24883766       0.24759035      -0.24759035 </v>
     <v>      -0.24883766       0.24759035       0.24759035 </v>
     <v>       0.00000000       0.49518069      -0.00000000 </v>
    </varray>
   </crystal>
   <varray name="positions" >
    <v>       0.00000000       0.00000000       0.00000000 </v>
   </varray>
  </structure>
  <varray name="primitive_index" >
   <v type="int" >        1 </v>
  </varray>
 </primitive_cell>
 <kpoints>
  <generation param="Monkhorst-Pack">
   <v type="int" name="divisions">      20       20       20 </v>
   <v name="usershift">      0.00000000       0.00000000       0.00000000 </v>
   <v name="genvec1">      0.05000000      -0.00000000       0.00000000 </v>
   <v name="genvec2">      0.00000000       0.05000000      -0.00000000 </v>
   <v name="genvec3">      0.00000000       0.00000000       0.05000000 </v>
   <v name="shift">      0.50000000       0.50000000       0.50000000 </v>
  </generation>
  <varray name="kpointlist" >
   <v>       0.02500000       0.02500000       0.02500000 </v>
   <v>       0.07500000       0.02500000       0.02500000 </v>
   <v>       0.12500000       0.02500000       0.02500000 </v>
   <v>       0.17500000       0.02500000       0.02500000 </v>
   <v>       0.22500000       0.02500000       0.02500000 </v>
   <v>       0.27500000       0.02500000       0.02500000 </v>
   <v>       0.32500000       0.02500000       0.02500000 </v>
   <v>       0.37500000       0.02500000       0.02500000 </v>
   <v>       0.42500000       0.02500000       0.02500000 </v>
   <v>       0.47500000       0.02500000       0.02500000 </v>
   <v>       0.02500000       0.07500000       0.02500000 </v>
   <v>       0.07500000       0.07500000       0.02500000 </v>
   <v>       0.12500000       0.07500000       0.02500000 </v>
   <v>       0.17500000       0.07500000       0.02500000 </v>
   <v>       0.22500000       0.07500000       0.02500000 </v>
   <v>       0.27500000       0.07500000       0.02500000 </v>
   <v>       0.32500000       0.07500000       0.02500000 </v>
   <v>       0.37500000       0.07500000       0.02500000 </v>
   <v>       0.42500000       0.07500000       0.02500000 </v>
   <v>       0.47500000       0.07500000       0.02500000 </v>
   <v>       0.02500000       0.12500000       0.02500000 </v>
   <v>       0.07500000       0.12500000       0.02500000 </v>
   <v>       0.12500000       0.12500000       0.02500000 </v>
   <v>       0.17500000       0.12500000       0.02500000 </v>
   <v>       0.22500000       0.12500000       0.02500000 </v>
   <v>       0.27500000       0.12500000       0.02500000 </v>
   <v>       0.32500000       0.12500000       0.02500000 </v>
   <v>       0.37500000       0.12500000       0.02500000 </v>
   <v>       0.42500000       0.12500000       0.02500000 </v>
   <v>       0.47500000       0.12500000       0.02500000 </v>
   <v>       0.02500000       0.17500000       0.02500000 </v>
   <v>       0.07500000       0.17500000       0.02500000 </v>
   <v>       0.12500000       0.17500000       0.02500000 </v>
   <v>       0.17500000       0.17500000       0.02500000 </v>
   <v>       0.22500000       0.17500000       0.02500000 </v>
   <v>       0.27500000       0.17500000       0.02500000 </v>
   <v>       0.32500000       0.17500000       0.02500000 </v>
   <v>       0.37500000       0.17500000       0.02500000 </v>
   <v>       0.42500000       0.17500000       0.02500000 </v>
   <v>       0.47500000       0.17500000       0.02500000 </v>
   <v>       0.02500000       0.22500000       0.02500000 </v>
   <v>       0.07500000       0.22500000       0.02500000 </v>
   <v>       0.12500000       0.22500000       0.02500000 </v>
   <v>       0.17500000       0.22500000       0.02500000 </v>
   <v>       0.22500000       0.22500000       0.02500000 </v>
   <v>       0.27500000       0.22500000       0.02500000 </v>
   <v>       0.32500000       0.22500000       0.02500000 </v>
   <v>       0.37500000       0.22500000       0.02500000 </v>
   <v>       0.42500000       0.22500000       0.02500000 </v>
   <v>       0.47500000       0.22500000       0.02500000 </v>
   <v>       0.02500000       0.27500000       0.02500000 </v>
   <v>       0.07500000       0.27500000       0.02500000 </v>
   <v>       0.12500000       0.27500000       0.02500000 </v>
   <v>       0.17500000       0.27500000       0.02500000 </v>
   <v>       0.22500000       0.27500000       0.02500000 </v>
   <v>       0.27500000       0.27500000       0.02500000 </v>
   <v>       0.32500000       0.27500000       0.02500000 </v>
   <v>       0.37500000       0.27500000       0.02500000 </v>
   <v>       0.42500000       0.27500000       0.02500000 </v>
   <v>       0.47500000       0.27500000       0.02500000 </v>
   <v>       0.02500000       0.32500000       0.02500000 </v>
   <v>       0.07500000       0.32500000       0.02500000 </v>
   <v>       0.12500000       0.32500000       0.02500000 </v>
   <v>       0.17500000       0.32500000       0.02500000 </v>
   <v>       0.22500000       0.32500000       0.02500000 </v>
   <v>       0.27500000       0.32500000       0.02500000 </v>
   <v>       0.32500000       0.32500000       0.02500000 </v>
   <v>       0.37500000       0.32500000       0.02500000 </v>
   <v>       0.42500000       0.32500000       0.02500000 </v>
   <v>       0.47500000       0.32500000       0.02500000 </v>
   <v>       0.02500000       0.37500000       0.02500000 </v>
   <v>       0.07500000       0.37500000       0.02500000 </v>
   <v>       0.12500000       0.37500000       0.02500000 </v>
   <v>       0.17500000       0.37500000       0.02500000 </v>
   <v>       0.22500000       0.37500000       0.02500000 </v>
   <v>       0.27500000       0.37500000       0.02500000 </v>
   <v>       0.32500000       0.37500000       0.02500000 </v>
   <v>       0.37500000       0.37500000       0.02500000 </v>
   <v>       0.42500000       0.37500000       0.02500000 </v>
   <v>       0.47500000       0.37500000       0.02500000 </v>
   <v>       0.02500000       0.42500000       0.02500000 </v>
   <v>       0.07500000       0.42500000       0.02500000 </v>
   <v>       0.12500000       0.42500000       0.02500000 </v>
   <v>       0.17500000       0.42500000       0.02500000 </v>
   <v>       0.22500000       0.42500000       0.02500000 </v>
   <v>       0.27500000       0.42500000       0.02500000 </v>
   <v>       0.32500000       0.42500000       0.02500000 </v>
   <v>       0.37500000       0.42500000       0.02500000 </v>
   <v>       0.42500000       0.42500000       0.02500000 </v>
   <v>       0.47500000       0.42500000       0.02500000 </v>
   <v>       0.02500000       0.47500000       0.02500000 </v>
   <v>       0.07500000       0.47500000       0.02500000 </v>
   <v>       0.12500000       0.47500000       0.02500000 </v>
   <v>       0.17500000       0.47500000       0.02500000 </v>
   <v>       0.22500000       0.47500000       0.02500000 </v>
   <v>       0.27500000       0.47500000       0.02500000 </v>
   <v>       0.32500000       0.47500000       0.02500000 </v>
   <v>       0.37500000       0.47500000       0.02500000 </v>
   <v>       0.42500000       0.47500000       0.02500000 </v>
   <v>       0.47500000       0.47500000       0.02500000 </v>
   <v>       0.02500000       0.07500000       0.07500000 </v>
   <v>       0.07500000       0.07500000       0.07500000 </v>
   <v>       0.12500000       0.07500000       0.07500000 </v>
   <v>       0.17500000       0.07500000       0.07500000 </v>
   <v>       0.22500000       0.07500000       0.07500000 </v>
   <v>       0.27500000       0.07500000       0.07500000 </v>
   <v>       0.32500000       0.07500000       0.07500000 </v>
   <v>       0.37500000       0.07500000       0.07500000 </v>
   <v>       0.42500000       0.07500000       0.07500000 </v>
   <v>       0.47500000       0.07500000       0.07500000 </v>
   <v>       0.02500000       0.12500000       0.07500000 </v>
   <v>       0.07500000       0.12500000       0.07500000 </v>
   <v>       0.12500000       0.12500000       0.07500000 </v>
   <v>       0.17500000       0.12500000       0.07500000 </v>
   <v>       0.22500000       0.12500000       0.07500000 </v>
   <v>       0.27500000       0.12500000       0.07500000 </v>
   <v>       0.32500000       0.12500000       0.07500000 </v>
   <v>       0.37500000       0.12500000       0.07500000 </v>
   <v>       0.42500000       0.12500000       0.07500000 </v>
   <v>       0.47500000       0.12500000       0.07500000 </v>
   <v>       0.02500000       0.17500000       0.07500000 </v>
   <v>       0.07500000       0.17500000       0.07500000 </v>
   <v>       0.12500000       0.17500000       0.07500000 </v>
   <v>       0.17500000       0.17500000       0.07500000 </v>
   <v>       0.22500000       0.17500000       0.07500000 </v>
   <v>       0.27500000       0.17500000       0.07500000 </v>
   <v>       0.32500000       0.17500000       0.07500000 </v>
   <v>       0.37500000       0.17500000       0.07500000 </v>
   <v>       0.42500000       0.17500000       0.07500000 </v>
   <v>       0.47500000       0.17500000       0.07500000 </v>
   <v>       0.02500000       0.22500000       0.07500000 </v>
   <v>       0.07500000       0.22500000       0.07500000 </v>
   <v>       0.12500000       0.22500000       0.07500000 </v>
   <v>       0.17500000       0.22500000       0.07500000 </v>
   <v>       0.22500000       0.22500000       0.07500000 </v>
   <v>       0.27500000       0.22500000       0.07500000 </v>
   <v>       0.32500000       0.22500000       0.07500000 </v>
   <v>       0.37500000       0.22500000       0.07500000 </v>
   <v>       0.42500000       0.22500000       0.07500000 </v>
   <v>       0.47500000       0.22500000       0.07500000 </v>
   <v>       0.02500000       0.27500000       0.07500000 </v>
   <v>       0.07500000       0.27500000       0.07500000 </v>
   <v>       0.12500000       0.27500000       0.07500000 </v>
   <v>       0.17500000       0.27500000       0.07500000 </v>
   <v>       0.22500000       0.27500000       0.07500000 </v>
   <v>       0.27500000       0.27500000       0.07500000 </v>
   <v>       0.32500000       0.27500000       0.07500000 </v>
   <v>       0.37500000       0.27500000       0.07500000 </v>
   <v>       0.42500000       0.27500000       0.07500000 </v>
   <v>       0.47500000       0.27500000       0.07500000 </v>
   <v>       0.02500000       0.32500000       0.07500000 </v>
   <v>       0.07500000       0.32500000       0.07500000 </v>
   <v>       0.12500000       0.32500000       0.07500000 </v>
   <v>       0.17500000       0.32500000       0.07500000 </v>
   <v>       0.22500000       0.32500000       0.07500000 </v>
   <v>       0.27500000       0.32500000       0.07500000 </v>
   <v>       0.32500000       0.32500000       0.07500000 </v>
   <v>       0.37500000       0.32500000       0.07500000 </v>
   <v>       0.42500000       0.32500000       0.07500000 </v>
   <v>       0.47500000       0.32500000       0.07500000 </v>
   <v>       0.02500000       0.37500000       0.07500000 </v>
   <v>       0.07500000       0.37500000       0.07500000 </v>
   <v>       0.12500000       0.37500000       0.07500000 </v>
   <v>       0.17500000       0.37500000       0.07500000 </v>
   <v>       0.22500000       0.37500000       0.07500000 </v>
   <v>       0.27500000       0.37500000       0.07500000 </v>
   <v>       0.32500000       0.37500000       0.07500000 </v>
   <v>       0.37500000       0.37500000       0.07500000 </v>
   <v>       0.42500000       0.37500000       0.07500000 </v>
   <v>       0.47500000       0.37500000       0.07500000 </v>
   <v>       0.02500000       0.42500000       0.07500000 </v>
   <v>       0.07500000       0.42500000       0.07500000 </v>
   <v>       0.12500000       0.42500000       0.07500000 </v>
   <v>       0.17500000       0.42500000       0.07500000 </v>
   <v>       0.22500000       0.42500000       0.07500000 </v>
   <v>       0.27500000       0.42500000       0.07500000 </v>
   <v>       0.32500000       0.42500000       0.07500000 </v>
   <v>       0.37500000       0.42500000       0.07500000 </v>
   <v>       0.42500000       0.42500000       0.07500000 </v>
   <v>       0.47500000       0.42500000       0.07500000 </v>
   <v>       0.02500000       0.47500000       0.07500000 </v>
   <v>       0.07500000       0.47500000       0.07500000 </v>
   <v>       0.12500000       0.47500000       0.07500000 </v>
   <v>       0.17500000       0.47500000       0.07500000 </v>
   <v>       0.22500000       0.47500000       0.07500000 </v>
   <v>       0.27500000       0.47500000       0.07500000 </v>
   <v>       0.32500000       0.47500000       0.07500000 </v>
   <v>       0.37500000       0.47500000       0.07500000 </v>
   <v>       0.42500000       0.47500000       0.07500000 </v>
   <v>       0.47500000       0.47500000       0.07500000 </v>
   <v>       0.02500000       0.12500000       0.12500000 </v>
   <v>       0.07500000       0.12500000       0.12500000 </v>
   <v>       0.12500000       0.12500000       0.12500000 </v>
   <v>       0.17500000       0.12500000       0.12500000 </v>
   <v>       0.22500000       0.12500000       0.12500000 </v>
   <v>       0.27500000       0.12500000       0.12500000 </v>
   <v>       0.32500000       0.12500000       0.12500000 </v>
   <v>       0.37500000       0.12500000       0.12500000 </v>
   <v>       0.42500000       0.12500000       0.12500000 </v>
   <v>       0.47500000       0.12500000       0.12500000 </v>
   <v>       0.02500000       0.17500000       0.12500000 </v>
   <v>       0.07500000       0.17500000       0.12500000 </v>
   <v>       0.12500000       0.17500000       0.12500000 </v>
   <v>       0.17500000       0.17500000       0.12500000 </v>
   <v>       0.22500000       0.17500000       0.12500000 </v>
   <v>       0.27500000       0.17500000       0.12500000 </v>
   <v>       0.32500000       0.17500000       0.12500000 </v>
   <v>       0.37500000       0.17500000       0.12500000 </v>
   <v>       0.42500000       0.17500000       0.12500000 </v>
   <v>       0.47500000       0.17500000       0.12500000 </v>
   <v>       0.02500000       0.22500000       0.12500000 </v>
   <v>       0.07500000       0.22500000       0.12500000 </v>
   <v>       0.12500000       0.22500000       0.12500000 </v>
   <v>       0.17500000       0.22500000       0.12500000 </v>
   <v>       0.22500000       0.22500000       0.12500000 </v>
   <v>       0.27500000       0.22500000       0.12500000 </v>
   <v>       0.32500000       0.22500000       0.12500000 </v>
   <v>       0.37500000       0.22500000       0.12500000 </v>
   <v>       0.42500000       0.22500000       0.12500000 </v>
   <v>       0.47500000       0.22500000       0.12500000 </v>
   <v>       0.02500000       0.27500000       0.12500000 </v>
   <v>       0.07500000       0.27500000       0.12500000 </v>
   <v>       0.12500000       0.27500000       0.12500000 </v>
   <v>       0.17500000       0.27500000       0.12500000 </v>
   <v>       0.22500000       0.27500000       0.12500000 </v>
   <v>       0.27500000       0.27500000       0.12500000 </v>
   <v>       0.32500000       0.27500000       0.12500000 </v>
   <v>       0.37500000       0.27500000       0.12500000 </v>
   <v>       0.42500000       0.27500000       0.12500000 </v>
   <v>       0.47500000       0.27500000       0.12500000 </v>
   <v>       0.02500000       0.32500000       0.12500000 </v>
   <v>       0.07500000       0.32500000       0.12500000 </v>
   <v>       0.12500000       0.32500000       0.12500000 </v>
   <v>       0.17500000       0.32500000       0.12500000 </v>
   <v>       0.22500000       0.32500000       0.12500000 </v>
   <v>       0.27500000       0.32500000       0.12500000 </v>
   <v>       0.32500000       0.32500000       0.12500000 </v>
   <v>       0.37500000       0.32500000       0.12500000 </v>
   <v>       0.42500000       0.32500000       0.12500000 </v>
   <v>       0.47500000       0.32500000       0.12500000 </v>
   <v>       0.02500000       0.37500000       0.12500000 </v>
   <v>       0.07500000       0.37500000       0.12500000 </v>
   <v>       0.12500000       0.37500000       0.12500000 </v>
   <v>       0.17500000       0.37500000       0.12500000 </v>
   <v>       0.22500000       0.37500000       0.12500000 </v>
   <v>       0.27500000       0.37500000       0.12500000 </v>
   <v>       0.32500000       0.37500000       0.12500000 </v>
   <v>       0.37500000       0.37500000       0.12500000 </v>
   <v>       0.42500000       0.37500000       0.12500000 </v>
   <v>       0.47500000       0.37500000       0.12500000 </v>
   <v>       0.02500000       0.42500000       0.12500000 </v>
   <v>       0.07500000       0.42500000       0.12500000 </v>
   <v>       0.12500000       0.42500000       0.12500000 </v>
   <v>       0.17500000       0.42500000       0.12500000 </v>
   <v>       0.22500000       0.42500000       0.12500000 </v>
   <v>       0.27500000       0.42500000       0.12500000 </v>
   <v>       0.32500000       0.42500000       0.12500000 </v>
   <v>       0.37500000       0.42500000       0.12500000 </v>
   <v>       0.42500000       0.42500000       0.12500000 </v>
   <v>       0.47500000       0.42500000       0.12500000 </v>
   <v>       0.02500000       0.47500000       0.12500000 </v>
   <v>       0.07500000       0.47500000       0.12500000 </v>
   <v>       0.12500000       0.47500000       0.12500000 </v>
   <v>       0.17500000       0.47500000       0.12500000 </v>
   <v>       0.22500000       0.47500000       0.12500000 </v>
   <v>       0.27500000       0.47500000       0.12500000 </v>
   <v>       0.32500000       0.47500000       0.12500000 </v>
   <v>       0.37500000       0.47500000       0.12500000 </v>
   <v>       0.42500000       0.47500000       0.12500000 </v>
   <v>       0.47500000       0.47500000       0.12500000 </v>
   <v>       0.02500000       0.17500000       0.17500000 </v>
   <v>       0.07500000       0.17500000       0.17500000 </v>
   <v>       0.12500000       0.17500000       0.17500000 </v>
   <v>       0.17500000       0.17500000       0.17500000 </v>
   <v>       0.22500000       0.17500000       0.17500000 </v>
   <v>       0.27500000       0.17500000       0.17500000 </v>
   <v>       0.32500000       0.17500000       0.17500000 </v>
   <v>       0.37500000       0.17500000       0.17500000 </v>
   <v>       0.42500000       0.17500000       0.17500000 </v>
   <v>       0.47500000       0.17500000       0.17500000 </v>
   <v>       0.02500000       0.22500000       0.17500000 </v>
   <v>       0.07500000       0.22500000       0.17500000 </v>
   <v>       0.12500000       0.22500000       0.17500000 </v>
   <v>       0.17500000       0.22500000       0.17500000 </v>
   <v>       0.22500000       0.22500000       0.17500000 </v>
   <v>       0.27500000       0.22500000       0.17500000 </v>
   <v>       0.32500000       0.22500000       0.17500000 </v>
   <v>       0.37500000       0.22500000       0.17500000 </v>
   <v>       0.42500000       0.22500000       0.17500000 </v>
   <v>       0.47500000       0.22500000       0.17500000 </v>
   <v>       0.02500000       0.27500000       0.17500000 </v>
   <v>       0.07500000       0.27500000       0.17500000 </v>
   <v>       0.12500000       0.27500000       0.17500000 </v>
   <v>       0.17500000       0.27500000       0.17500000 </v>
   <v>       0.22500000       0.27500000       0.17500000 </v>
   <v>       0.27500000       0.27500000       0.17500000 </v>
   <v>       0.32500000       0.27500000       0.17500000 </v>
   <v>       0.37500000       0.27500000       0.17500000 </v>
   <v>       0.42500000       0.27500000       0.17500000 </v>
   <v>       0.47500000       0.27500000       0.17500000 </v>
   <v>       0.02500000       0.32500000       0.17500000 </v>
   <v>       0.07500000       0.32500000       0.17500000 </v>
   <v>       0.12500000       0.32500000       0.17500000 </v>
   <v>       0.17500000       0.32500000       0.17500000 </v>
   <v>       0.22500000       0.32500000       0.17500000 </v>
   <v>       0.27500000       0.32500000       0.17500000 </v>
   <v>       0.32500000       0.32500000       0.17500000 </v>
   <v>       0.37500000       0.32500000       0.17500000 </v>
   <v>       0.42500000       0.32500000       0.17500000 </v>
   <v>       0.47500000       0.32500000       0.17500000 </v>
   <v>       0.02500000       0.37500000       0.17500000 </v>
   <v>       0.07500000       0.37500000       0.17500000 </v>
   <v>       0.12500000       0.37500000       0.17500000 </v>
   <v>       0.17500000       0.37500000       0.17500000 </v>
   <v>       0.22500000       0.37500000       0.17500000 </v>
   <v>       0.27500000       0.37500000       0.17500000 </v>
   <v>       0.32500000       0.37500000       0.17500000 </v>
   <v>       0.37500000       0.37500000       0.17500000 </v>
   <v>       0.42500000       0.37500000       0.17500000 </v>
   <v>       0.47500000       0.37500000       0.17500000 </v>
   <v>       0.02500000       0.42500000       0.17500000 </v>
   <v>       0.07500000       0.42500000       0.17500000 </v>
   <v>       0.12500000       0.42500000       0.17500000 </v>
   <v>       0.17500000       0.42500000       0.17500000 </v>
   <v>       0.22500000       0.42500000       0.17500000 </v>
   <v>       0.27500000       0.42500000       0.17500000 </v>
   <v>       0.32500000       0.42500000       0.17500000 </v>
   <v>       0.37500000       0.42500000       0.17500000 </v>
   <v>       0.42500000       0.42500000       0.17500000 </v>
   <v>       0.47500000       0.42500000       0.17500000 </v>
   <v>       0.02500000       0.47500000       0.17500000 </v>
   <v>       0.07500000       0.47500000       0.17500000 </v>
   <v>       0.12500000       0.47500000       0.17500000 </v>
   <v>       0.17500000       0.47500000       0.17500000 </v>
   <v>       0.22500000       0.47500000       0.17500000 </v>
   <v>       0.27500000       0.47500000       0.17500000 </v>
   <v>       0.32500000       0.47500000       0.17500000 </v>
   <v>       0.37500000       0.47500000       0.17500000 </v>
   <v>       0.42500000       0.47500000       0.17500000 </v>
   <v>       0.47500000       0.47500000       0.17500000 </v>
   <v>       0.02500000       0.22500000       0.22500000 </v>
   <v>       0.07500000       0.22500000       0.22500000 </v>
   <v>       0.12500000       0.22500000       0.22500000 </v>
   <v>       0.17500000       0.22500000       0.22500000 </v>
   <v>       0.22500000       0.22500000       0.22500000 </v>
   <v>       0.27500000       0.22500000       0.22500000 </v>
   <v>       0.32500000       0.22500000       0.22500000 </v>
   <v>       0.37500000       0.22500000       0.22500000 </v>
   <v>       0.42500000       0.22500000       0.22500000 </v>
   <v>       0.47500000       0.22500000       0.22500000 </v>
   <v>       0.02500000       0.27500000       0.22500000 </v>
   <v>       0.07500000       0.27500000       0.22500000 </v>
   <v>       0.12500000       0.27500000       0.22500000 </v>
   <v>       0.17500000       0.27500000       0.22500000 </v>
   <v>       0.22500000       0.27500000       0.22500000 </v>
   <v>       0.27500000       0.27500000       0.22500000 </v>
   <v>       0.32500000       0.27500000       0.22500000 </v>
   <v>       0.37500000       0.27500000       0.22500000 </v>
   <v>       0.42500000       0.27500000       0.22500000 </v>
   <v>       0.47500000       0.27500000       0.22500000 </v>
   <v>       0.02500000       0.32500000       0.22500000 </v>
   <v>       0.07500000       0.32500000       0.22500000 </v>
   <v>       0.12500000       0.32500000       0.22500000 </v>
   <v>       0.17500000       0.32500000       0.22500000 </v>
   <v>       0.22500000       0.32500000       0.22500000 </v>
   <v>       0.27500000       0.32500000       0.22500000 </v>
   <v>       0.32500000       0.32500000       0.22500000 </v>
   <v>       0.37500000       0.32500000       0.22500000 </v>
   <v>       0.42500000       0.32500000       0.22500000 </v>
   <v>       0.47500000       0.32500000       0.22500000 </v>
   <v>       0.02500000       0.37500000       0.22500000 </v>
   <v>       0.07500000       0.37500000       0.22500000 </v>
   <v>       0.12500000       0.37500000       0.22500000 </v>
   <v>       0.17500000       0.37500000       0.22500000 </v>
   <v>       0.22500000       0.37500000       0.22500000 </v>
   <v>       0.27500000       0.37500000       0.22500000 </v>
   <v>       0.32500000       0.37500000       0.22500000 </v>
   <v>       0.37500000       0.37500000       0.22500000 </v>
   <v>       0.42500000       0.37500000       0.22500000 </v>
   <v>       0.47500000       0.37500000       0.22500000 </v>
   <v>       0.02500000       0.42500000       0.22500000 </v>
   <v>       0.07500000       0.42500000       0.22500000 </v>
   <v>       0.12500000       0.42500000       0.22500000 </v>
   <v>       0.17500000       0.42500000       0.22500000 </v>
   <v>       0.22500000       0.42500000       0.22500000 </v>
   <v>       0.27500000       0.42500000       0.22500000 </v>
   <v>       0.32500000       0.42500000       0.22500000 </v>
   <v>       0.37500000       0.42500000       0.22500000 </v>
   <v>       0.42500000       0.42500000       0.22500000 </v>
   <v>       0.47500000       0.42500000       0.22500000 </v>
   <v>       0.02500000       0.47500000       0.22500000 </v>
   <v>       0.07500000       0.47500000       0.22500000 </v>
   <v>       0.12500000       0.47500000       0.22500000 </v>
   <v>       0.17500000       0.47500000       0.22500000 </v>
   <v>       0.22500000       0.47500000       0.22500000 </v>
   <v>       0.27500000       0.47500000       0.22500000 </v>
   <v>       0.32500000       0.47500000       0.22500000 </v>
   <v>       0.37500000       0.47500000       0.22500000 </v>
   <v>       0.42500000       0.47500000       0.22500000 </v>
   <v>       0.47500000       0.47500000       0.22500000 </v>
   <v>       0.02500000       0.27500000       0.27500000 </v>
   <v>       0.07500000       0.27500000       0.27500000 </v>
   <v>       0.12500000       0.27500000       0.27500000 </v>
   <v>       0.17500000       0.27500000       0.27500000 </v>
   <v>       0.22500000       0.27500000       0.27500000 </v>
   <v>       0.27500000       0.27500000       0.27500000 </v>
   <v>       0.32500000       0.27500000       0.27500000 </v>
   <v>       0.37500000       0.27500000       0.27500000 </v>
   <v>       0.42500000       0.27500000       0.27500000 </v>
   <v>       0.47500000       0.27500000       0.27500000 </v>
   <v>       0.02500000       0.32500000       0.27500000 </v>
   <v>       0.07500000       0.32500000       0.27500000 </v>
   <v>       0.12500000       0.32500000       0.27500000 </v>
   <v>       0.17500000       0.32500000       0.27500000 </v>
   <v>       0.22500000       0.32500000       0.27500000 </v>
   <v>       0.27500000       0.32500000       0.27500000 </v>
   <v>       0.32500000       0.32500000       0.27500000 </v>
   <v>       0.37500000       0.32500000       0.27500000 </v>
   <v>       0.42500000       0.32500000       0.27500000 </v>
   <v>       0.47500000       0.32500000       0.27500000 </v>
   <v>       0.02500000       0.37500000       0.27500000 </v>
   <v>       0.07500000       0.37500000       0.27500000 </v>
   <v>       0.12500000       0.37500000       0.27500000 </v>
   <v>       0.17500000       0.37500000       0.27500000 </v>
   <v>       0.22500000       0.37500000       0.27500000 </v>
   <v>       0.27500000       0.37500000       0.27500000 </v>
   <v>       0.32500000       0.37500000       0.27500000 </v>
   <v>       0.37500000       0.37500000       0.27500000 </v>
   <v>       0.42500000       0.37500000       0.27500000 </v>
   <v>       0.47500000       0.37500000       0.27500000 </v>
   <v>       0.02500000       0.42500000       0.27500000 </v>
   <v>       0.07500000       0.42500000       0.27500000 </v>
   <v>       0.12500000       0.42500000       0.27500000 </v>
   <v>       0.17500000       0.42500000       0.27500000 </v>
   <v>       0.22500000       0.42500000       0.27500000 </v>
   <v>       0.27500000       0.42500000       0.27500000 </v>
   <v>       0.32500000       0.42500000       0.27500000 </v>
   <v>       0.37500000       0.42500000       0.27500000 </v>
   <v>       0.42500000       0.42500000       0.27500000 </v>
   <v>       0.47500000       0.42500000       0.27500000 </v>
   <v>       0.02500000       0.47500000       0.27500000 </v>
   <v>       0.07500000       0.47500000       0.27500000 </v>
   <v>       0.12500000       0.47500000       0.27500000 </v>
   <v>       0.17500000       0.47500000       0.27500000 </v>
   <v>       0.22500000       0.47500000       0.27500000 </v>
   <v>       0.27500000       0.47500000       0.27500000 </v>
   <v>       0.32500000       0.47500000       0.27500000 </v>
   <v>       0.37500000       0.47500000       0.27500000 </v>
   <v>       0.42500000       0.47500000       0.27500000 </v>
   <v>       0.47500000       0.47500000       0.27500000 </v>
   <v>       0.02500000       0.32500000       0.32500000 </v>
   <v>       0.07500000       0.32500000       0.32500000 </v>
   <v>       0.12500000       0.32500000       0.32500000 </v>
   <v>       0.17500000       0.32500000       0.32500000 </v>
   <v>       0.22500000       0.32500000       0.32500000 </v>
   <v>       0.27500000       0.32500000       0.32500000 </v>
   <v>       0.32500000       0.32500000       0.32500000 </v>
   <v>       0.37500000       0.32500000       0.32500000 </v>
   <v>       0.42500000       0.32500000       0.32500000 </v>
   <v>       0.47500000       0.32500000       0.32500000 </v>
   <v>       0.02500000       0.37500000       0.32500000 </v>
   <v>       0.07500000       0.37500000       0.32500000 </v>
   <v>       0.12500000       0.37500000       0.32500000 </v>
   <v>       0.17500000       0.37500000       0.32500000 </v>
   <v>       0.22500000       0.37500000       0.32500000 </v>
   <v>       0.27500000       0.37500000       0.32500000 </v>
   <v>       0.32500000       0.37500000       0.32500000 </v>
   <v>       0.37500000       0.37500000       0.32500000 </v>
   <v>       0.42500000       0.37500000       0.32500000 </v>
   <v>       0.47500000       0.37500000       0.32500000 </v>
   <v>       0.02500000       0.42500000       0.32500000 </v>
   <v>       0.07500000       0.42500000       0.32500000 </v>
   <v>       0.12500000       0.42500000       0.32500000 </v>
   <v>       0.17500000       0.42500000       0.32500000 </v>
   <v>       0.22500000       0.42500000       0.32500000 </v>
   <v>       0.27500000       0.42500000       0.32500000 </v>
   <v>       0.32500000       0.42500000       0.32500000 </v>
   <v>       0.37500000       0.42500000       0.32500000 </v>
   <v>       0.42500000       0.42500000       0.32500000 </v>
   <v>       0.47500000       0.42500000       0.32500000 </v>
   <v>       0.02500000       0.47500000       0.32500000 </v>
   <v>       0.07500000       0.47500000       0.32500000 </v>
   <v>       0.12500000       0.47500000       0.32500000 </v>
   <v>       0.17500000       0.47500000       0.32500000 </v>
   <v>       0.22500000       0.47500000       0.32500000 </v>
   <v>       0.27500000       0.47500000       0.32500000 </v>
   <v>       0.32500000       0.47500000       0.32500000 </v>
   <v>       0.37500000       0.47500000       0.32500000 </v>
   <v>       0.42500000       0.47500000       0.32500000 </v>
   <v>       0.47500000       0.47500000       0.32500000 </v>
   <v>       0.02500000       0.37500000       0.37500000 </v>
   <v>       0.07500000       0.37500000       0.37500000 </v>
   <v>       0.12500000       0.37500000       0.37500000 </v>
   <v>       0.17500000       0.37500000       0.37500000 </v>
   <v>       0.22500000       0.37500000       0.37500000 </v>
   <v>       0.27500000       0.37500000       0.37500000 </v>
   <v>       0.32500000       0.37500000       0.37500000 </v>
   <v>       0.37500000       0.37500000       0.37500000 </v>
   <v>       0.42500000       0.37500000       0.37500000 </v>
   <v>       0.47500000       0.37500000       0.37500000 </v>
   <v>       0.02500000       0.42500000       0.37500000 </v>
   <v>       0.07500000       0.42500000       0.37500000 </v>
   <v>       0.12500000       0.42500000       0.37500000 </v>
   <v>       0.17500000       0.42500000       0.37500000 </v>
   <v>       0.22500000       0.42500000       0.37500000 </v>
   <v>       0.27500000       0.42500000       0.37500000 </v>
   <v>       0.32500000       0.42500000       0.37500000 </v>
   <v>       0.37500000       0.42500000       0.37500000 </v>
   <v>       0.42500000       0.42500000       0.37500000 </v>
   <v>       0.47500000       0.42500000       0.37500000 </v>
   <v>       0.02500000       0.47500000       0.37500000 </v>
   <v>       0.07500000       0.47500000       0.37500000 </v>
   <v>       0.12500000       0.47500000       0.37500000 </v>
   <v>       0.17500000       0.47500000       0.37500000 </v>
   <v>       0.22500000       0.47500000       0.37500000 </v>
   <v>       0.27500000       0.47500000       0.37500000 </v>
   <v>       0.32500000       0.47500000       0.37500000 </v>
   <v>       0.37500000       0.47500000       0.37500000 </v>
   <v>       0.42500000       0.47500000       0.37500000 </v>
   <v>       0.47500000       0.47500000       0.37500000 </v>
   <v>       0.02500000       0.42500000       0.42500000 </v>
   <v>       0.07500000       0.42500000       0.42500000 </v>
   <v>       0.12500000       0.42500000       0.42500000 </v>
   <v>       0.17500000       0.42500000       0.42500000 </v>
   <v>       0.22500000       0.42500000       0.42500000 </v>
   <v>       0.27500000       0.42500000       0.42500000 </v>
   <v>       0.32500000       0.42500000       0.42500000 </v>
   <v>       0.37500000       0.42500000       0.42500000 </v>
   <v>       0.42500000       0.42500000       0.42500000 </v>
   <v>       0.47500000       0.42500000       0.42500000 </v>
   <v>       0.02500000       0.47500000       0.42500000 </v>
   <v>       0.07500000       0.47500000       0.42500000 </v>
   <v>       0.12500000       0.47500000       0.42500000 </v>
   <v>       0.17500000       0.47500000       0.42500000 </v>
   <v>       0.22500000       0.47500000       0.42500000 </v>
   <v>       0.27500000       0.47500000       0.42500000 </v>
   <v>       0.32500000       0.47500000       0.42500000 </v>
   <v>       0.37500000       0.47500000       0.42500000 </v>
   <v>       0.42500000       0.47500000       0.42500000 </v>
   <v>       0.47500000       0.47500000       0.42500000 </v>
   <v>       0.02500000       0.47500000       0.47500000 </v>
   <v>       0.07500000       0.47500000       0.47500000 </v>
   <v>       0.12500000       0.47500000       0.47500000 </v>
   <v>       0.17500000       0.47500000       0.47500000 </v>
   <v>       0.22500000       0.47500000       0.47500000 </v>
   <v>       0.27500000       0.47500000       0.47500000 </v>
   <v>       0.32500000       0.47500000       0.47500000 </v>
   <v>       0.37500000       0.47500000       0.47500000 </v>
   <v>       0.42500000       0.47500000       0.47500000 </v>
   <v>       0.47500000       0.47500000       0.47500000 </v>
  </varray>
  <varray name="weights" >
   <v>       0.00100000 </v>
   <v>       0.00100000 </v>
   <v>       0.00100000 </v>
   <v>       0.00100000 </v>
   <v>       0.00100000 </v>
   <v>       0.00100000 </v>
   <v>       0.00100000 </v>
   <v>       0.00100000 </v>
   <v>       0.00100000 </v>
   <v>       0.00100000 </v>
   <v>       0.00200000 </v>
   <v>       0.00200000 </v>
   <v>       0.00200000 </v>
   <v>       0.00200000 </v>
   <v>       0.00200000 </v>
   <v>       0.00200000 </v>
   <v>       0.00200000 </v>
   <v>       0.00200000 </v>
   <v>       0.00200000 </v>
   <v>       0.00200000 </v>
   <v>       0.00200000 </v>
   <v>       0.00200000 </v>
   <v>       0.00200000 </v>
   <v>       0.00200000 </v>
   <v>       0.00200000 </v>
   <v>       0.00200000 </v>
   <v>       0.00200000 </v>
   <v>       0.00200000 </v>
   <v>       0.00200000 </v>
   <v>       0.00200000 </v>
   <v>       0.00200000 </v>
   <v>       0.00200000 </v>
   <v>       0.00200000 </v>
   <v>       0.00200000 </v>
   <v>       0.00200000 </v>
   <v>       0.00200000 </v>
   <v>       0.00200000 </v>
   <v>       0.00200000 </v>
   <v>       0.00200000 </v>
   <v>       0.00200000 </v>
   <v>       0.00200000 </v>
   <v>       0.00200000 </v>
   <v>       0.00200000 </v>
   <v>       0.00200000 </v>
   <v>       0.00200000 </v>
   <v>       0.00200000 </v>
   <v>       0.00200000 </v>
   <v>       0.00200000 </v>
   <v>       0.00200000 </v>
   <v>       0.00200000 </v>
   <v>       0.00200000 </v>
   <v>       0.00200000 </v>
   <v>       0.00200000 </v>
   <v>       0.00200000 </v>
   <v>       0.00200000 </v>
   <v>       0.00200000 </v>
   <v>       0.00200000 </v>
   <v>       0.00200000 </v>
   <v>       0.00200000 </v>
   <v>       0.00200000 </v>
   <v>       0.00200000 </v>
   <v>       0.00200000 </v>
   <v>       0.00200000 </v>
   <v>       0.00200000 </v>
   <v>       0.00200000 </v>
   <v>       0.00200000 </v>
   <v>       0.00200000 </v>
   <v>       0.00200000 </v>
   <v>       0.00200000 </v>
   <v>       0.00200000 </v>
   <v>       0.00200000 </v>
   <v>       0.00200000 </v>
   <v>       0.00200000 </v>
   <v>       0.00200000 </v>
   <v>       0.00200000 </v>
   <v>       0.00200000 </v>
   <v>       0.00200000 </v>
   <v>       0.00200000 </v>
   <v>       0.00200000 </v>
   <v>       0.00200000 </v>
   <v>       0.00200000 </v>
   <v>       0.00200000 </v>
   <v>       0.00200000 </v>
   <v>       0.00200000 </v>
   <v>       0.00200000 </v>
   <v>       0.00200000 </v>
   <v>       0.00200000 </v>
   <v>       0.00200000 </v>
   <v>       0.00200000 </v>
   <v>       0.00200000 </v>
   <v>       0.00200000 </v>
   <v>       0.00200000 </v>
   <v>       0.00200000 </v>
   <v>       0.00200000 </v>
   <v>       0.00200000 </v>
   <v>       0.00200000 </v>
   <v>       0.00200000 </v>
   <v>       0.00200000 </v>
   <v>       0.00200000 </v>
   <v>       0.00200000 </v>
   <v>       0.00100000 </v>
   <v>       0.00100000 </v>
   <v>       0.00100000 </v>
   <v>       0.00100000 </v>
   <v>       0.00100000 </v>
   <v>       0.00100000 </v>
   <v>       0.00100000 </v>
   <v>       0.00100000 </v>
   <v>       0.00100000 </v>
   <v>       0.00100000 </v>
   <v>       0.00200000 </v>
   <v>       0.00200000 </v>
   <v>       0.00200000 </v>
   <v>       0.00200000 </v>
   <v>       0.00200000 </v>
   <v>       0.00200000 </v>
   <v>       0.00200000 </v>
   <v>       0.00200000 </v>
   <v>       0.00200000 </v>
   <v>       0.00200000 </v>
   <v>       0.00200000 </v>
   <v>       0.00200000 </v>
   <v>       0.00200000 </v>
   <v>       0.00200000 </v>
   <v>       0.00200000 </v>
   <v>       0.00200000 </v>
   <v>       0.00200000 </v>
   <v>       0.00200000 </v>
   <v>       0.00200000 </v>
   <v>       0.00200000 </v>
   <v>       0.00200000 </v>
   <v>       0.00200000 </v>
   <v>       0.00200000 </v>
   <v>       0.00200000 </v>
   <v>       0.00200000 </v>
   <v>       0.00200000 </v>
   <v>       0.00200000 </v>
   <v>       0.00200000 </v>
   <v>       0.00200000 </v>
   <v>       0.00200000 </v>
   <v>       0.00200000 </v>
   <v>       0.00200000 </v>
   <v>       0.00200000 </v>
   <v>       0.00200000 </v>
   <v>       0.00200000 </v>
   <v>       0.00200000 </v>
   <v>       0.00200000 </v>
   <v>       0.00200000 </v>
   <v>       0.00200000 </v>
   <v>       0.00200000 </v>
   <v>       0.00200000 </v>
   <v>       0.00200000 </v>
   <v>       0.00200000 </v>
   <v>       0.00200000 </v>
   <v>       0.00200000 </v>
   <v>       0.00200000 </v>
   <v>       0.00200000 </v>
   <v>       0.00200000 </v>
   <v>       0.00200000 </v>
   <v>       0.00200000 </v>
   <v>       0.00200000 </v>
   <v>       0.00200000 </v>
   <v>       0.00200000 </v>
   <v>       0.00200000 </v>
   <v>       0.00200000 </v>
   <v>       0.00200000 </v>
   <v>       0.00200000 </v>
   <v>       0.00200000 </v>
   <v>       0.00200000 </v>
   <v>       0.00200000 </v>
   <v>       0.00200000 </v>
   <v>       0.00200000 </v>
   <v>       0.00200000 </v>
   <v>       0.00200000 </v>
   <v>       0.00200000 </v>
   <v>       0.00200000 </v>
   <v>       0.00200000 </v>
   <v>       0.00200000 </v>
   <v>       0.00200000 </v>
   <v>       0.00200000 </v>
   <v>       0.00200000 </v>
   <v>       0.00200000 </v>
   <v>       0.00200000 </v>
   <v>       0.00200000 </v>
   <v>       0.00200000 </v>
   <v>       0.00200000 </v>
   <v>       0.00200000 </v>
   <v>       0.00200000 </v>
   <v>       0.00200000 </v>
   <v>       0.00200000 </v>
   <v>       0.00100000 </v>
   <v>       0.00100000 </v>
   <v>       0.00100000 </v>
   <v>       0.00100000 </v>
   <v>       0.00100000 </v>
   <v>       0.00100000 </v>
   <v>       0.00100000 </v>
   <v>       0.00100000 </v>
   <v>       0.00100000 </v>
   <v>       0.00100000 </v>
   <v>       0.00200000 </v>
   <v>       0.00200000 </v>
   <v>       0.00200000 </v>
   <v>       0.00200000 </v>
   <v>       0.00200000 </v>
   <v>       0.00200000 </v>
   <v>       0.00200000 </v>
   <v>       0.00200000 </v>
   <v>       0.00200000 </v>
   <v>       0.00200000 </v>
   <v>       0.00200000 </v>
   <v>       0.00200000 </v>
   <v>       0.00200000 </v>
   <v>       0.00200000 </v>
   <v>       0.00200000 </v>
   <v>       0.00200000 </v>
   <v>       0.00200000 </v>
   <v>       0.00200000 </v>
   <v>       0.00200000 </v>
   <v>       0.00200000 </v>
   <v>       0.00200000 </v>
   <v>       0.00200000 </v>
   <v>       0.00200000 </v>
   <v>       0.00200000 </v>
   <v>       0.00200000 </v>
   <v>       0.00200000 </v>
   <v>       0.00200000 </v>
   <v>       0.00200000 </v>
   <v>       0.00200000 </v>
   <v>       0.00200000 </v>
   <v>       0.00200000 </v>
   <v>       0.00200000 </v>
   <v>       0.00200000 </v>
   <v>       0.00200000 </v>
   <v>       0.00200000 </v>
   <v>       0.00200000 </v>
   <v>       0.00200000 </v>
   <v>       0.00200000 </v>
   <v>       0.00200000 </v>
   <v>       0.00200000 </v>
   <v>       0.00200000 </v>
   <v>       0.00200000 </v>
   <v>       0.00200000 </v>
   <v>       0.00200000 </v>
   <v>       0.00200000 </v>
   <v>       0.00200000 </v>
   <v>       0.00200000 </v>
   <v>       0.00200000 </v>
   <v>       0.00200000 </v>
   <v>       0.00200000 </v>
   <v>       0.00200000 </v>
   <v>       0.00200000 </v>
   <v>       0.00200000 </v>
   <v>       0.00200000 </v>
   <v>       0.00200000 </v>
   <v>       0.00200000 </v>
   <v>       0.00200000 </v>
   <v>       0.00200000 </v>
   <v>       0.00200000 </v>
   <v>       0.00200000 </v>
   <v>       0.00200000 </v>
   <v>       0.00200000 </v>
   <v>       0.00200000 </v>
   <v>       0.00200000 </v>
   <v>       0.00200000 </v>
   <v>       0.00200000 </v>
   <v>       0.00200000 </v>
   <v>       0.00200000 </v>
   <v>       0.00200000 </v>
   <v>       0.00200000 </v>
   <v>       0.00100000 </v>
   <v>       0.00100000 </v>
   <v>       0.00100000 </v>
   <v>       0.00100000 </v>
   <v>       0.00100000 </v>
   <v>       0.00100000 </v>
   <v>       0.00100000 </v>
   <v>       0.00100000 </v>
   <v>       0.00100000 </v>
   <v>       0.00100000 </v>
   <v>       0.00200000 </v>
   <v>       0.00200000 </v>
   <v>       0.00200000 </v>
   <v>       0.00200000 </v>
   <v>       0.00200000 </v>
   <v>       0.00200000 </v>
   <v>       0.00200000 </v>
   <v>       0.00200000 </v>
   <v>       0.00200000 </v>
   <v>       0.00200000 </v>
   <v>       0.00200000 </v>
   <v>       0.00200000 </v>
   <v>       0.00200000 </v>
   <v>       0.00200000 </v>
   <v>       0.00200000 </v>
   <v>       0.00200000 </v>
   <v>       0.00200000 </v>
   <v>       0.00200000 </v>
   <v>       0.00200000 </v>
   <v>       0.00200000 </v>
   <v>       0.00200000 </v>
   <v>       0.00200000 </v>
   <v>       0.00200000 </v>
   <v>       0.00200000 </v>
   <v>       0.00200000 </v>
   <v>       0.00200000 </v>
   <v>       0.00200000 </v>
   <v>       0.00200000 </v>
   <v>       0.00200000 </v>
   <v>       0.00200000 </v>
   <v>       0.00200000 </v>
   <v>       0.00200000 </v>
   <v>       0.00200000 </v>
   <v>       0.00200000 </v>
   <v>       0.00200000 </v>
   <v>       0.00200000 </v>
   <v>       0.00200000 </v>
   <v>       0.00200000 </v>
   <v>       0.00200000 </v>
   <v>       0.00200000 </v>
   <v>       0.00200000 </v>
   <v>       0.00200000 </v>
   <v>       0.00200000 </v>
   <v>       0.00200000 </v>
   <v>       0.00200000 </v>
   <v>       0.00200000 </v>
   <v>       0.00200000 </v>
   <v>       0.00200000 </v>
   <v>       0.00200000 </v>
   <v>       0.00200000 </v>
   <v>       0.00200000 </v>
   <v>       0.00200000 </v>
   <v>       0.00200000 </v>
   <v>       0.00200000 </v>
   <v>       0.00200000 </v>
   <v>       0.00200000 </v>
   <v>       0.00200000 </v>
   <v>       0.00200000 </v>
   <v>       0.00200000 </v>
   <v>       0.00200000 </v>
   <v>       0.00100000 </v>
   <v>       0.00100000 </v>
   <v>       0.00100000 </v>
   <v>       0.00100000 </v>
   <v>       0.00100000 </v>
   <v>       0.00100000 </v>
   <v>       0.00100000 </v>
   <v>       0.00100000 </v>
   <v>       0.00100000 </v>
   <v>       0.00100000 </v>
   <v>       0.00200000 </v>
   <v>       0.00200000 </v>
   <v>       0.00200000 </v>
   <v>       0.00200000 </v>
   <v>       0.00200000 </v>
   <v>       0.00200000 </v>
   <v>       0.00200000 </v>
   <v>       0.00200000 </v>
   <v>       0.00200000 </v>
   <v>       0.00200000 </v>
   <v>       0.00200000 </v>
   <v>       0.00200000 </v>
   <v>       0.00200000 </v>
   <v>       0.00200000 </v>
   <v>       0.00200000 </v>
   <v>       0.00200000 </v>
   <v>       0.00200000 </v>
   <v>       0.00200000 </v>
   <v>       0.00200000 </v>
   <v>       0.00200000 </v>
   <v>       0.00200000 </v>
   <v>       0.00200000 </v>
   <v>       0.00200000 </v>
   <v>       0.00200000 </v>
   <v>       0.00200000 </v>
   <v>       0.00200000 </v>
   <v>       0.00200000 </v>
   <v>       0.00200000 </v>
   <v>       0.00200000 </v>
   <v>       0.00200000 </v>
   <v>       0.00200000 </v>
   <v>       0.00200000 </v>
   <v>       0.00200000 </v>
   <v>       0.00200000 </v>
   <v>       0.00200000 </v>
   <v>       0.00200000 </v>
   <v>       0.00200000 </v>
   <v>       0.00200000 </v>
   <v>       0.00200000 </v>
   <v>       0.00200000 </v>
   <v>       0.00200000 </v>
   <v>       0.00200000 </v>
   <v>       0.00200000 </v>
   <v>       0.00200000 </v>
   <v>       0.00200000 </v>
   <v>       0.00200000 </v>
   <v>       0.00200000 </v>
   <v>       0.00200000 </v>
   <v>       0.00200000 </v>
   <v>       0.00200000 </v>
   <v>       0.00100000 </v>
   <v>       0.00100000 </v>
   <v>       0.00100000 </v>
   <v>       0.00100000 </v>
   <v>       0.00100000 </v>
   <v>       0.00100000 </v>
   <v>       0.00100000 </v>
   <v>       0.00100000 </v>
   <v>       0.00100000 </v>
   <v>       0.00100000 </v>
   <v>       0.00200000 </v>
   <v>       0.00200000 </v>
   <v>       0.00200000 </v>
   <v>       0.00200000 </v>
   <v>       0.00200000 </v>
   <v>       0.00200000 </v>
   <v>       0.00200000 </v>
   <v>       0.00200000 </v>
   <v>       0.00200000 </v>
   <v>       0.00200000 </v>
   <v>       0.00200000 </v>
   <v>       0.00200000 </v>
   <v>       0.00200000 </v>
   <v>       0.00200000 </v>
   <v>       0.00200000 </v>
   <v>       0.00200000 </v>
   <v>       0.00200000 </v>
   <v>       0.00200000 </v>
   <v>       0.00200000 </v>
   <v>       0.00200000 </v>
   <v>       0.00200000 </v>
   <v>       0.00200000 </v>
   <v>       0.00200000 </v>
   <v>       0.00200000 </v>
   <v>       0.00200000 </v>
   <v>       0.00200000 </v>
   <v>       0.00200000 </v>
   <v>       0.00200000 </v>
   <v>       0.00200000 </v>
   <v>       0.00200000 </v>
   <v>       0.00200000 </v>
   <v>       0.00200000 </v>
   <v>       0.00200000 </v>
   <v>       0.00200000 </v>
   <v>       0.00200000 </v>
   <v>       0.00200000 </v>
   <v>       0.00200000 </v>
   <v>       0.00200000 </v>
   <v>       0.00200000 </v>
   <v>       0.00200000 </v>
   <v>       0.00100000 </v>
   <v>       0.00100000 </v>
   <v>       0.00100000 </v>
   <v>       0.00100000 </v>
   <v>       0.00100000 </v>
   <v>       0.00100000 </v>
   <v>       0.00100000 </v>
   <v>       0.00100000 </v>
   <v>       0.00100000 </v>
   <v>       0.00100000 </v>
   <v>       0.00200000 </v>
   <v>       0.00200000 </v>
   <v>       0.00200000 </v>
   <v>       0.00200000 </v>
   <v>       0.00200000 </v>
   <v>       0.00200000 </v>
   <v>       0.00200000 </v>
   <v>       0.00200000 </v>
   <v>       0.00200000 </v>
   <v>       0.00200000 </v>
   <v>       0.00200000 </v>
   <v>       0.00200000 </v>
   <v>       0.00200000 </v>
   <v>       0.00200000 </v>
   <v>       0.00200000 </v>
   <v>       0.00200000 </v>
   <v>       0.00200000 </v>
   <v>       0.00200000 </v>
   <v>       0.00200000 </v>
   <v>       0.00200000 </v>
   <v>       0.00200000 </v>
   <v>       0.00200000 </v>
   <v>       0.00200000 </v>
   <v>       0.00200000 </v>
   <v>       0.00200000 </v>
   <v>       0.00200000 </v>
   <v>       0.00200000 </v>
   <v>       0.00200000 </v>
   <v>       0.00200000 </v>
   <v>       0.00200000 </v>
   <v>       0.00100000 </v>
   <v>       0.00100000 </v>
   <v>       0.00100000 </v>
   <v>       0.00100000 </v>
   <v>       0.00100000 </v>
   <v>       0.00100000 </v>
   <v>       0.00100000 </v>
   <v>       0.00100000 </v>
   <v>       0.00100000 </v>
   <v>       0.00100000 </v>
   <v>       0.00200000 </v>
   <v>       0.00200000 </v>
   <v>       0.00200000 </v>
   <v>       0.00200000 </v>
   <v>       0.00200000 </v>
   <v>       0.00200000 </v>
   <v>       0.00200000 </v>
   <v>       0.00200000 </v>
   <v>       0.00200000 </v>
   <v>       0.00200000 </v>
   <v>       0.00200000 </v>
   <v>       0.00200000 </v>
   <v>       0.00200000 </v>
   <v>       0.00200000 </v>
   <v>       0.00200000 </v>
   <v>       0.00200000 </v>
   <v>       0.00200000 </v>
   <v>       0.00200000 </v>
   <v>       0.00200000 </v>
   <v>       0.00200000 </v>
   <v>       0.00100000 </v>
   <v>       0.00100000 </v>
   <v>       0.00100000 </v>
   <v>       0.00100000 </v>
   <v>       0.00100000 </v>
   <v>       0.00100000 </v>
   <v>       0.00100000 </v>
   <v>       0.00100000 </v>
   <v>       0.00100000 </v>
   <v>       0.00100000 </v>
   <v>       0.00200000 </v>
   <v>       0.00200000 </v>
   <v>       0.00200000 </v>
   <v>       0.00200000 </v>
   <v>       0.00200000 </v>
   <v>       0.00200000 </v>
   <v>       0.00200000 </v>
   <v>       0.00200000 </v>
   <v>       0.00200000 </v>
   <v>       0.00200000 </v>
   <v>       0.00100000 </v>
   <v>       0.00100000 </v>
   <v>       0.00100000 </v>
   <v>       0.00100000 </v>
   <v>       0.00100000 </v>
   <v>       0.00100000 </v>
   <v>       0.00100000 </v>
   <v>       0.00100000 </v>
   <v>       0.00100000 </v>
   <v>       0.00100000 </v>
  </varray>
 </kpoints>
 <parameters>
  <separator name="general" >
   <i type="string" name="SYSTEM">Al fcc relaxation</i>
   <i type="logical" name="LCOMPAT"> F  </i>
  </separator>
  <separator name="electronic" >
   <i type="string" name="PREC">accura</i>
   <i name="ENMAX">    400.00000000</i>
   <i name="ENAUG">    291.05200000</i>
   <i name="EDIFF">      0.00000100</i>
   <i type="int" name="IALGO">    68</i>
   <i type="int" name="IWAVPR">    11</i>
   <i type="int" name="NBANDS">    14</i>
   <i type="int" name="NBANDSLOW">    -1</i>
   <i type="int" name="NBANDSHIGH">    -1</i>
   <i name="NELECT">     12.00000000</i>
   <i type="int" name="TURBO">     0</i>
   <i type="int" name="IRESTART">     0</i>
   <i type="int" name="NREBOOT">     0</i>
   <i type="int" name="NMIN">     0</i>
   <i name="EREF">      0.00000000</i>
   <separator name="electronic smearing" >
    <i type="int" name="ISMEAR">     1</i>
    <i name="SIGMA">      0.20000000</i>
    <i name="KSPACING">      0.08000000</i>
    <i type="logical" name="KGAMMA"> T  </i>
    <i type="logical" name="KBLOWUP"> T  </i>
   </separator>
   <separator name="electronic projectors" >
    <i type="logical" name="LREAL"> T  </i>
    <v name="ROPT">     -0.00025000</v>
    <i type="int" name="LMAXPAW">  -100</i>
    <i type="int" name="LMAXMIX">     2</i>
    <i type="logical" name="NLSPLINE"> F  </i>
   </separator>
   <separator name="electronic startup" >
    <i type="int" name="ISTART">     0</i>
    <i type="int" name="ICHARG">     2</i>
    <i type="int" name="INIWAV">     1</i>
   </separator>
   <separator name="electronic spin" >
    <i type="int" name="ISPIN">     1</i>
    <i type="logical" name="LNONCOLLINEAR"> F  </i>
    <v name="MAGMOM">      1.00000000      1.00000000      1.00000000      1.00000000</v>
    <i name="NUPDOWN">     -1.00000000</i>
    <i type="logical" name="LSORBIT"> F  </i>
    <v name="SAXIS">      0.00000000      0.00000000      1.00000000</v>
    <i type="logical" name="LSPIRAL"> F  </i>
    <v name="QSPIRAL">      0.00000000      0.00000000      0.00000000</v>
    <i type="logical" name="LZEROZ"> F  </i>
   </separator>
   <separator name="electronic exchange-correlation" >
    <i type="logical" name="LASPH"> F  </i>
    <i type="logical" name="LMETAGGA"> F  </i>
   </separator>
   <separator name="electronic convergence" >
    <i type="int" name="NELM">    60</i>
    <i type="int" name="NELMDL">    -5</i>
    <i type="int" name="NELMIN">     4</i>
    <i name="ENINI">    400.00000000</i>
    <separator name="electronic convergence detail" >
     <i type="logical" name="LDIAG"> T  </i>
     <i type="logical" name="LSUBROT"> F  </i>
     <i name="WEIMIN">      0.00100000</i>
     <i name="EBREAK">      0.00000002</i>
     <i name="DEPER">      0.30000000</i>
     <i type="int" name="NRMM">     4</i>
     <i name="TIME">      0.40000000</i>
    </separator>
   </separator>
   <separator name="electronic mixer" >
    <i name="AMIX">      0.40000000</i>
    <i name="BMIX">      1.00000000</i>
    <i name="AMIN">      0.10000000</i>
    <i name="AMIX_MAG">      1.60000000</i>
    <i name="BMIX_MAG">      1.00000000</i>
    <separator name="electronic mixer details" >
     <i type="int" name="IMIX">     4</i>
     <i type="logical" name="MIXFIRST"> F  </i>
     <i type="int" name="MAXMIX">   -45</i>
     <i name="WC">    100.00000000</i>
     <i type="int" name="INIMIX">     1</i>
     <i type="int" name="MIXPRE">     1</i>
     <i type="int" name="MREMOVE">     5</i>
    </separator>
   </separator>
   <separator name="electronic dipolcorrection" >
    <i type="logical" name="LDIPOL"> F  </i>
    <i type="logical" name="LMONO"> F  </i>
    <i type="int" name="IDIPOL">     0</i>
    <i name="EPSILON">      1.00000000</i>
    <v name="DIPOL">   -100.00000000   -100.00000000   -100.00000000</v>
    <i name="EFIELD">      0.00000000</i>
   </separator>
  </separator>
  <separator name="grids" >
   <i type="int" name="NGX">    28</i>
   <i type="int" name="NGY">    28</i>
   <i type="int" name="NGZ">    28</i>
   <i type="int" name="NGXF">    56</i>
   <i type="int" name="NGYF">    56</i>
   <i type="int" name="NGZF">    56</i>
   <i type="logical" name="ADDGRID"> F  </i>
  </separator>
  <separator name="ionic" >
   <i type="int" name="NSW">   100</i>
   <i type="int" name="IBRION">     2</i>
   <i type="int" name="MDALGO">     0</i>
   <i type="int" name="ISIF">     2</i>
   <i name="PSTRESS">      0.00000000</i>
   <i name="EDIFFG">      0.00001000</i>
   <i type="int" name="NFREE">     1</i>
   <i name="POTIM">      0.50000000</i>
   <i name="SMASS">     -3.00000000</i>
   <i name="SCALEE">      1.00000000</i>
  </separator>
  <separator name="ionic md" >
   <i name="TEBEG">      0.00010000</i>
   <i name="TEEND">      0.00010000</i>
   <i type="int" name="NBLOCK">     1</i>
   <i type="int" name="KBLOCK">   100</i>
   <i type="int" name="NPACO">   256</i>
   <i name="APACO">     10.00000000</i>
  </separator>
  <separator name="symmetry" >
   <i type="int" name="ISYM">     2</i>
   <i name="SYMPREC">      0.00001000</i>
  </separator>
  <separator name="dos" >
   <i type="int" name="LORBIT">     0</i>
   <v name="RWIGS">     -1.00000000</v>
   <i type="int" name="NEDOS">   301</i>
   <i name="EMIN">     10.00000000</i>
   <i name="EMAX">    -10.00000000</i>
   <i name="EFERMI">      0.00000000</i>
  </separator>
  <separator name="writing" >
   <i type="int" name="NWRITE">     2</i>
   <i type="logical" name="LWAVE"> F  </i>
   <i type="logical" name="LDOWNSAMPLE"> F  </i>
   <i type="logical" name="LCHARG"> F  </i>
   <i type="logical" name="LPARD"> F  </i>
   <i type="logical" name="LVTOT"> F  </i>
   <i type="logical" name="LVHAR"> F  </i>
   <i type="logical" name="LELF"> F  </i>
   <i type="logical" name="LOPTICS"> F  </i>
   <v name="STM">      0.00000000      0.00000000      0.00000000      0.00000000      0.00000000      0.00000000      0.00000000</v>
  </separator>
  <separator name="performance" >
   <i type="int" name="NPAR">    14</i>
   <i type="int" name="NSIM">     4</i>
   <i type="int" name="NBLK">    -1</i>
   <i type="logical" name="LPLANE"> T  </i>
   <i type="logical" name="LSCALAPACK"> T  </i>
   <i type="logical" name="LSCAAWARE"> F  </i>
   <i type="logical" name="LSCALU"> F  </i>
   <i type="logical" name="LASYNC"> F  </i>
   <i type="logical" name="LORBITALREAL"> F  </i>
  </separator>
  <separator name="miscellaneous" >
   <i type="int" name="IDIOT">     3</i>
   <i type="int" name="PHON_NSTRUCT">    -1</i>
   <i type="logical" name="LMUSIC"> F  </i>
   <v name="POMASS">     26.98100000</v>
   <v name="DARWINR">      0.00000000</v>
   <v name="DARWINV">      1.00000000</v>
   <i type="logical" name="LCORR"> T  </i>
  </separator>
  <i type="logical" name="GGA_COMPAT"> T  </i>
  <i type="logical" name="LBERRY"> F  </i>
  <i type="int" name="ICORELEVEL">     0</i>
  <i type="logical" name="LDAU"> F  </i>
  <i type="int" name="I_CONSTRAINED_M">     0</i>
  <separator name="electronic exchange-correlation" >
   <i type="string" name="GGA">--</i>
   <i type="int" name="VOSKOWN">     0</i>
   <i type="logical" name="LHFCALC"> F  </i>
   <i type="string" name="PRECFOCK"></i>
   <i type="logical" name="LSYMGRAD"> F  </i>
   <i type="logical" name="LHFONE"> F  </i>
   <i type="logical" name="LRHFCALC"> F  </i>
   <i type="logical" name="LTHOMAS"> F  </i>
   <i type="logical" name="LMODELHF"> F  </i>
   <i type="logical" name="LFOCKACE"> F  </i>
   <i name="ENCUT4O">     -1.00000000</i>
   <i type="int" name="EXXOEP">     0</i>
   <i type="int" name="FOURORBIT">     0</i>
   <i name="AEXX">      0.00000000</i>
   <i name="HFALPHA">      0.00000000</i>
   <i name="MCALPHA">      0.00000000</i>
   <i name="ALDAX">      1.00000000</i>
   <i name="AGGAX">      1.00000000</i>
   <i name="ALDAC">      1.00000000</i>
   <i name="AGGAC">      1.00000000</i>
   <i type="int" name="NKREDX">     1</i>
   <i type="int" name="NKREDY">     1</i>
   <i type="int" name="NKREDZ">     1</i>
   <i type="logical" name="SHIFTRED"> F  </i>
   <i type="logical" name="ODDONLY"> F  </i>
   <i type="logical" name="EVENONLY"> F  </i>
   <i type="int" name="LMAXFOCK">     0</i>
   <i type="int" name="NMAXFOCKAE">     0</i>
   <i type="logical" name="LFOCKAEDFT"> F  </i>
   <i name="HFSCREEN">      0.00000000</i>
   <i name="HFSCREENC">      0.00000000</i>
   <i type="int" name="NBANDSGWLOW">     0</i>
  </separator>
  <separator name="vdW DFT" >
   <i type="logical" name="LUSE_VDW"> F  </i>
   <i type="int" name="IVDW_NL">     1</i>
   <i type="logical" name="LSPIN_VDW"> F  </i>
   <i name="Zab_VDW">     -0.84910000</i>
   <i name="PARAM1">      0.12340000</i>
   <i name="PARAM2">      1.00000000</i>
   <i name="PARAM3">      0.00000000</i>
  </separator>
  <separator name="model GW" >
   <i type="int" name="MODEL_GW">     0</i>
   <i name="MODEL_EPS0">      9.83349127</i>
   <i name="MODEL_ALPHA">      1.00000000</i>
  </separator>
  <separator name="linear response parameters" >
   <i type="logical" name="LEPSILON"> F  </i>
   <i type="logical" name="LRPA"> F  </i>
   <i type="logical" name="LNABLA"> F  </i>
   <i type="logical" name="LVEL"> F  </i>
   <i name="CSHIFT">      0.10000000</i>
   <i name="OMEGAMAX">     -1.00000000</i>
   <i name="DEG_THRESHOLD">      0.00200000</i>
   <i name="RTIME">     -0.10000000</i>
   <i name="WPLASMAI">      0.00000000</i>
   <v name="DFIELD">      0.00000000      0.00000000      0.00000000</v>
   <v name="WPLASMA">      0.00000000      0.00000000      0.00000000      0.00000000      0.00000000      0.00000000      0.00000000      0.00000000      0.00000000</v>
  </separator>
  <separator name="orbital magnetization" >
   <i type="logical" name="NUCIND"> F  </i>
   <v name="MAGPOS">      0.00000000      0.00000000      0.00000000</v>
   <i type="logical" name="LNICSALL"> T  </i>
   <i type="logical" name="ORBITALMAG"> F  </i>
   <i type="logical" name="LMAGBLOCH"> F  </i>
   <i type="logical" name="LCHIMAG"> F  </i>
   <i type="logical" name="LGAUGE"> T  </i>
   <i type="int" name="MAGATOM">     0</i>
   <v name="MAGDIPOL">      0.00000000      0.00000000      0.00000000</v>
   <v name="AVECCONST">      0.00000000      0.00000000      0.00000000</v>
  </separator>
  <separator name="response functions" >
   <i type="logical" name="LALL_IN_ONE"> F  </i>
   <i type="int" name="IALL_IN_ONE">    -1</i>
   <i type="int" name="NBANDS_WAVE">    -1</i>
   <i type="logical" name="LFINITE_TEMPERATURE"> F  </i>
   <i type="logical" name="LADDER"> F  </i>
   <i type="logical" name="LRPAFORCE"> F  </i>
   <i type="logical" name="LFXC"> F  </i>
   <i type="logical" name="LHARTREE"> T  </i>
   <i type="int" name="IBSE">     0</i>
   <v type="int" name="KPOINT">    -1     0     0     0</v>
   <i type="logical" name="LTCTC"> F  </i>
   <i type="logical" name="LTCTE"> F  </i>
   <i type="logical" name="LTETE"> F  </i>
   <i type="logical" name="LTRIPLET"> F  </i>
   <i type="logical" name="LFXCEPS"> F  </i>
   <i type="logical" name="LFXHEG"> F  </i>
   <i type="int" name="NATURALO">     2</i>
   <i type="logical" name="LHOLEGF"> F  </i>
   <i type="logical" name="L2ORDER"> F  </i>
   <i type="logical" name="LDMP1"> F  </i>
   <i type="logical" name="LMP2LT"> F  </i>
   <i type="logical" name="LSMP2LT"> F  </i>
   <i type="logical" name="LGWLF"> F  </i>
   <i name="ENCUTGW">     -1.60000002</i>
   <i name="ENCUTGWSOFT">     -1.60000002</i>
   <i name="ENCUTLF">     -1.00000000</i>
   <i type="logical" name="LESF_SPLINES"> F  </i>
   <i type="int" name="LMAXMP2">    -1</i>
   <i name="SCISSOR">      0.00000000</i>
   <i type="int" name="NOMEGA">     0</i>
   <i type="int" name="NOMEGAR">     0</i>
   <i type="int" name="NBANDSGW">    -1</i>
   <i type="int" name="NBANDSO">    -1</i>
   <i type="int" name="NBANDSV">    -1</i>
   <i type="int" name="NELMGW">     1</i>
   <i type="int" name="NELMHF">     1</i>
   <i type="int" name="DIM">     3</i>
   <i type="int" name="IESPILON">     4</i>
   <i type="int" name="ANTIRES">     0</i>
   <i name="OMEGAMAX">    -30.00000000</i>
   <i name="OMEGAMIN">    -30.00000000</i>
   <i name="OMEGATL">   -200.00000000</i>
   <i type="int" name="OMEGAGRID">     0</i>
   <i name="CSHIFT">     -0.10000000</i>
   <i type="logical" name="LSELFENERGY"> F  </i>
   <i type="logical" name="LSPECTRAL"> F  </i>
   <i type="logical" name="LSPECTRALGW"> F  </i>
   <i type="logical" name="LSINGLES"> F  </i>
   <i type="logical" name="LFERMIGW"> F  </i>
   <i type="logical" name="ODDONLYGW"> F  </i>
   <i type="logical" name="EVENONLYGW"> F  </i>
   <i type="int" name="NKREDLFX">     1</i>
   <i type="int" name="NKREDLFY">     1</i>
   <i type="int" name="NKREDLFZ">     1</i>
   <i type="int" name="MAXMEM">  2800</i>
   <i type="int" name="TELESCOPE">     0</i>
   <i type="int" name="NTAUPAR">    -1</i>
   <i type="int" name="NOMEGAPAR">    -1</i>
   <i name="DAMP_NEWTON">      0.80000001</i>
   <i name="LAMBDA">      1.00000000</i>
  </separator>
  <separator name="External order field" >
   <i name="OFIELD_KAPPA">      0.00000000</i>
   <v name="OFIELD_K">      0.00000000      0.00000000      0.00000000</v>
   <i name="OFIELD_Q6_NEAR">      0.00000000</i>
   <i name="OFIELD_Q6_FAR">      0.00000000</i>
   <i name="OFIELD_A">      0.00000000</i>
  </separator>
  <separator name="optional k-points parameters" >
   <i type="int" name="KPOINTS_OPT_MODE">     1</i>
   <i type="logical" name="LKPOINTS_OPT"> F  </i>
  </separator>
 </parameters>
 <atominfo>
  <atoms>       4 </atoms>
  <types>       1 </types>
  <array name="atoms" >
   <dimension dim="1">ion</dimension>
   <field type="string">element</field>
   <field type="int">atomtype</field>
   <set>
    <rc><c>Al</c><c>   1</c></rc>
    <rc><c>Al</c><c>   1</c></rc>
    <rc><c>Al</c><c>   1</c></rc>
    <rc><c>Al</c><c>   1</c></rc>
   </set>
  </array>
  <array name="atomtypes" >
   <dimension dim="1">type</dimension>
   <field type="int">atomspertype</field>
   <field type="string">element</field>
   <field>mass</field>
   <field>valence</field>
   <field type="string">pseudopotential</field>
   <set>
    <rc><c>   4</c><c>Al</c><c>     26.98100000</c><c>      3.00000000</c><c>  PAW_PBE Al 04Jan2001                  </c></rc>
   </set>
  </array>
 </atominfo>
 <structure name="initialpos" >
  <crystal>
   <varray name="basis" >
    <v>       4.01868430       0.00000000       0.00000000 </v>
    <v>      -0.00000000       4.03892969       0.00000000 </v>
    <v>       0.00000000       0.00000000       4.03892969 </v>
   </varray>
   <i name="volume">     65.55660844 </i>
   <varray name="rec_basis" >
    <v>       0.24883766       0.00000000      -0.00000000 </v>
    <v>       0.00000000       0.24759035      -0.00000000 </v>
    <v>       0.00000000      -0.00000000       0.24759035 </v>
   </varray>
  </crystal>
  <varray name="positions" >
   <v>       0.00000000       0.00000000       0.00000000 </v>
   <v>       0.00000000       0.50000000       0.50000000 </v>
   <v>       0.50000000       0.00000000       0.50000000 </v>
   <v>       0.50000000       0.50000000       0.00000000 </v>
  </varray>
 </structure>
 <calculation>
  <scstep>
   <time name="dav">   27.05   13.55</time>
   <time name="total">   27.10   13.58</time>
   <energy>
    <i name="alphaZ">     -0.81976417 </i>
    <i name="ewald">   -294.72424840 </i>
    <i name="hartreedc">     -0.39570625 </i>
    <i name="XCdc">   -104.91036699 </i>
    <i name="pawpsdc">    264.80062850 </i>
    <i name="pawaedc">   -136.98248303 </i>
    <i name="eentropy">      0.00101349 </i>
    <i name="bandstr">     56.45551552 </i>
    <i name="atom">    214.15261729 </i>
    <i name="e_fr_energy">     -2.42279404 </i>
    <i name="e_wo_entrp">     -2.42380753 </i>
    <i name="e_0_energy">     -2.42313187 </i>
   </energy>
  </scstep>
  <scstep>
   <time name="dav">   38.55   19.33</time>
   <time name="total">   38.56   19.33</time>
   <energy>
    <i name="e_fr_energy">    -15.00731474 </i>
    <i name="e_wo_entrp">    -15.00920988 </i>
    <i name="e_0_energy">    -15.00794645 </i>
   </energy>
  </scstep>
  <scstep>
   <time name="dav">   34.97   17.50</time>
   <time name="total">   34.98   17.50</time>
   <energy>
    <i name="e_fr_energy">    -15.07670343 </i>
    <i name="e_wo_entrp">    -15.07882638 </i>
    <i name="e_0_energy">    -15.07741108 </i>
   </energy>
  </scstep>
  <scstep>
   <time name="dav">   44.45   22.23</time>
   <time name="total">   44.46   22.24</time>
   <energy>
    <i name="e_fr_energy">    -15.07685634 </i>
    <i name="e_wo_entrp">    -15.07897917 </i>
    <i name="e_0_energy">    -15.07756395 </i>
   </energy>
  </scstep>
  <scstep>
   <time name="dav">   36.42   18.22</time>
   <time name="total">   37.23   18.62</time>
   <energy>
    <i name="e_fr_energy">    -15.07685643 </i>
    <i name="e_wo_entrp">    -15.07897925 </i>
    <i name="e_0_energy">    -15.07756404 </i>
   </energy>
  </scstep>
  <scstep>
   <time name="diag">    4.31    2.16</time>
   <time name="diis">    8.58    4.52</time>
   <time name="orth">    0.30    0.15</time>
   <time name="total">   14.04    7.25</time>
   <energy>
    <i name="e_fr_energy">    -15.02459807 </i>
    <i name="e_wo_entrp">    -15.02675809 </i>
    <i name="e_0_energy">    -15.02531808 </i>
   </energy>
  </scstep>
  <scstep>
   <time name="diag">    4.43    2.22</time>
   <time name="diis">    8.56    4.48</time>
   <time name="orth">    0.30    0.15</time>
   <time name="total">   14.13    7.27</time>
   <energy>
    <i name="e_fr_energy">    -14.98636562 </i>
    <i name="e_wo_entrp">    -14.98856581 </i>
    <i name="e_0_energy">    -14.98709902 </i>
   </energy>
  </scstep>
  <scstep>
   <time name="diag">    4.45    2.23</time>
   <time name="diis">    8.54    4.46</time>
   <time name="orth">    0.30    0.15</time>
   <time name="total">   14.15    7.27</time>
   <energy>
    <i name="e_fr_energy">    -14.98633516 </i>
    <i name="e_wo_entrp">    -14.98853564 </i>
    <i name="e_0_energy">    -14.98706865 </i>
   </energy>
  </scstep>
  <scstep>
   <time name="diag">    4.39    2.20</time>
   <time name="diis">    8.57    4.48</time>
   <time name="orth">    0.30    0.15</time>
   <time name="total">   14.11    7.25</time>
   <energy>
    <i name="e_fr_energy">    -14.98634091 </i>
    <i name="e_wo_entrp">    -14.98854174 </i>
    <i name="e_0_energy">    -14.98707452 </i>
   </energy>
  </scstep>
  <scstep>
   <time name="diag">    4.46    2.23</time>
   <time name="diis">    8.63    4.52</time>
   <time name="orth">    0.33    0.17</time>
   <time name="total">   14.27    7.36</time>
   <energy>
    <i name="e_fr_energy">    -14.98634187 </i>
    <i name="e_wo_entrp">    -14.98854267 </i>
    <i name="e_0_energy">    -14.98707547 </i>
   </energy>
  </scstep>
  <scstep>
   <time name="diag">    4.33    2.19</time>
   <time name="diis">    8.14    4.43</time>
   <time name="orth">    0.68    0.35</time>
   <time name="total">   14.00    7.40</time>
   <energy>
    <i name="e_fr_energy">    -14.98633745 </i>
    <i name="e_wo_entrp">    -14.98853831 </i>
    <i name="e_0_energy">    -14.98707107 </i>
   </energy>
  </scstep>
  <scstep>
   <time name="diag">    4.39    2.20</time>
   <time name="diis">    6.66    4.16</time>
   <time name="orth">    0.30    0.15</time>
   <time name="total">   11.40    6.53</time>
   <energy>
    <i name="alphaZ">     -0.81976417 </i>
    <i name="ewald">   -294.72424840 </i>
    <i name="hartreedc">     -0.42222031 </i>
    <i name="XCdc">   -104.46815608 </i>
    <i name="pawpsdc">    569.79636437 </i>
    <i name="pawaedc">   -442.03238290 </i>
    <i name="eentropy">      0.00220085 </i>
    <i name="bandstr">     43.52925202 </i>
    <i name="atom">    214.15261729 </i>
    <i name="e_fr_energy">    -14.98633734 </i>
    <i name="e_wo_entrp">    -14.98853819 </i>
    <i name="e_0_energy">    -14.98707095 </i>
   </energy>
  </scstep>
  <structure>
   <crystal>
    <varray name="basis" >
     <v>       4.01868430       0.00000000       0.00000000 </v>
     <v>      -0.00000000       4.03892969       0.00000000 </v>
     <v>       0.00000000       0.00000000       4.03892969 </v>
    </varray>
    <i name="volume">     65.55660844 </i>
    <varray name="rec_basis" >
     <v>       0.24883766       0.00000000      -0.00000000 </v>
     <v>       0.00000000       0.24759035      -0.00000000 </v>
     <v>       0.00000000      -0.00000000       0.24759035 </v>
    </varray>
   </crystal>
   <varray name="positions" >
    <v>       0.00000000       0.00000000       0.00000000 </v>
    <v>       0.00000000       0.50000000       0.50000000 </v>
    <v>       0.50000000       0.00000000       0.50000000 </v>
    <v>       0.50000000       0.50000000       0.00000000 </v>
   </varray>
  </structure>
  <varray name="forces" >
   <v>      -0.00000000       0.00000000      -0.00000000 </v>
   <v>      -0.00000000      -0.00000000       0.00000000 </v>
   <v>       0.00000000      -0.00000000       0.00000000 </v>
   <v>      -0.00000000       0.00000000      -0.00000000 </v>
  </varray>
  <varray name="stress" >
   <v>       7.59321929       0.00000000      -0.00000000 </v>
   <v>       0.00000000       2.55106230       0.00000000 </v>
   <v>       0.00000000       0.00000000       2.55106230 </v>
  </varray>
  <energy>
   <i name="e_fr_energy">    -14.98633734 </i>
   <i name="e_wo_entrp">    -14.98853819 </i>
   <i name="e_0_energy">    -14.98707095 </i>
  </energy>
  <time name="totalsc">  302.34  153.99</time>
  <eigenvalues>
   <array>
    <dimension dim="1">band</dimension>
    <dimension dim="2">kpoint</dimension>
    <dimension dim="3">spin</dimension>
    <field>eigene</field>
    <field>occ</field>
    <set>
     <set comment="spin 1">
      <set comment="kpoint 1">
       <r>   -3.0933    1.0000 </r>
       <r>    4.9936    1.0000 </r>
       <r>    4.9936    1.0000 </r>
       <r>    5.0668    1.0000 </r>
       <r>    6.5787    1.0000 </r>
       <r>    6.5787    1.0000 </r>
       <r>    6.6822    1.0000 </r>
       <r>   12.8317   -0.0000 </r>
       <r>   12.9004   -0.0000 </r>
       <r>   12.9004   -0.0000 </r>
       <r>   13.6497    0.0000 </r>
       <r>   13.7422    0.0000 </r>
       <r>   13.7422    0.0000 </r>
       <r>   14.0286    0.0000 </r>
      </set>
      <set comment="kpoint 2">
       <r>   -3.0475    1.0000 </r>
       <r>    4.4391    1.0000 </r>
       <r>    5.0358    1.0000 </r>
       <r>    5.0358    1.0000 </r>
       <r>    6.6226    1.0000 </r>
       <r>    6.6226    1.0000 </r>
       <r>    7.3890    1.0000 </r>
       <r>   12.1869   -0.0000 </r>
       <r>   12.1869   -0.0000 </r>
       <r>   12.8745   -0.0000 </r>
       <r>   13.4658   -0.0000 </r>
       <r>   13.4658   -0.0000 </r>
       <r>   13.6886    0.0000 </r>
       <r>   14.0696    0.0000 </r>
      </set>
      <set comment="kpoint 3">
       <r>   -2.9559    1.0000 </r>
       <r>    3.7089    1.0000 </r>
       <r>    5.1202    1.0000 </r>
       <r>    5.1202    1.0000 </r>
       <r>    6.7102    1.0000 </r>
       <r>    6.7102    1.0000 </r>
       <r>    8.2775   -0.0203 </r>
       <r>   11.4473   -0.0000 </r>
       <r>   11.4473   -0.0000 </r>
       <r>   12.9601   -0.0000 </r>
       <r>   12.9620   -0.0000 </r>
       <r>   12.9620   -0.0000 </r>
       <r>   13.7663    0.0000 </r>
       <r>   14.1527    0.0000 </r>
      </set>
      <set comment="kpoint 4">
       <r>   -2.8186    1.0000 </r>
       <r>    2.9857    1.0000 </r>
       <r>    5.2467    1.0000 </r>
       <r>    5.2467    1.0000 </r>
       <r>    6.8410    1.0000 </r>
       <r>    6.8410    1.0000 </r>
       <r>    9.2379   -0.0000 </r>
       <r>   10.7376   -0.0000 </r>
       <r>   10.7376   -0.0000 </r>
       <r>   12.3832   -0.0000 </r>
       <r>   12.3832   -0.0000 </r>
       <r>   13.0884   -0.0000 </r>
       <r>   13.8829    0.0000 </r>
       <r>   14.2774    0.0000 </r>
      </set>
      <set comment="kpoint 5">
       <r>   -2.6358    1.0000 </r>
       <r>    2.2914    1.0000 </r>
       <r>    5.4155    1.0000 </r>
       <r>    5.4155    1.0000 </r>
       <r>    7.0140    1.0000 </r>
       <r>    7.0140    1.0000 </r>
       <r>   10.0662   -0.0000 </r>
       <r>   10.0662   -0.0000 </r>
       <r>   10.2481   -0.0000 </r>
       <r>   11.7879   -0.0000 </r>
       <r>   11.7879   -0.0000 </r>
       <r>   13.2590   -0.0000 </r>
       <r>   14.0384    0.0000 </r>
       <r>   14.4438    0.0000 </r>
      </set>
      <set comment="kpoint 6">
       <r>   -2.4075    1.0000 </r>
       <r>    1.6331    1.0000 </r>
       <r>    5.6263    1.0000 </r>
       <r>    5.6263    1.0000 </r>
       <r>    7.2274    1.0000 </r>
       <r>    7.2274    1.0000 </r>
       <r>    9.4359   -0.0000 </r>
       <r>    9.4359   -0.0000 </r>
       <r>   11.2040   -0.0000 </r>
       <r>   11.2040   -0.0000 </r>
       <r>   11.3007   -0.0000 </r>
       <r>   13.4721   -0.0000 </r>
       <r>   14.2328    0.0000 </r>
       <r>   14.6521    0.0000 </r>
      </set>
      <set comment="kpoint 7">
       <r>   -2.1342    1.0000 </r>
       <r>    1.0139    1.0000 </r>
       <r>    5.8793    1.0000 </r>
       <r>    5.8793    1.0000 </r>
       <r>    7.4772    1.0001 </r>
       <r>    7.4772    1.0001 </r>
       <r>    8.8489   -0.0000 </r>
       <r>    8.8489   -0.0000 </r>
       <r>   10.6469   -0.0000 </r>
       <r>   10.6469   -0.0000 </r>
       <r>   12.3920   -0.0000 </r>
       <r>   13.7274    0.0000 </r>
       <r>   14.4662    0.0000 </r>
       <r>   14.9025    0.0000 </r>
      </set>
      <set comment="kpoint 8">
       <r>   -1.8159    1.0000 </r>
       <r>    0.4354    1.0000 </r>
       <r>    6.1742    1.0000 </r>
       <r>    6.1742    1.0000 </r>
       <r>    7.7488    1.0192 </r>
       <r>    7.7488    1.0192 </r>
       <r>    8.3143   -0.0343 </r>
       <r>    8.3143   -0.0343 </r>
       <r>   10.1297   -0.0000 </r>
       <r>   10.1297   -0.0000 </r>
       <r>   13.5175   -0.0000 </r>
       <r>   14.0267    0.0000 </r>
       <r>   14.7387    0.0000 </r>
       <r>   15.1952    0.0000 </r>
      </set>
      <set comment="kpoint 9">
       <r>   -1.4531    1.0000 </r>
       <r>   -0.1012    1.0000 </r>
       <r>    6.5108    1.0000 </r>
       <r>    6.5108    1.0000 </r>
       <r>    7.7464    1.0187 </r>
       <r>    7.7464    1.0187 </r>
       <r>    8.1107    0.3954 </r>
       <r>    8.1107    0.3954 </r>
       <r>    9.6738   -0.0000 </r>
       <r>    9.6738   -0.0000 </r>
       <r>   14.3512    0.0000 </r>
       <r>   14.6936    0.0000 </r>
       <r>   15.0509    0.0000 </r>
       <r>   15.5762    0.0000 </r>
      </set>
      <set comment="kpoint 10">
       <r>   -1.0461    1.0000 </r>
       <r>   -0.5953    1.0000 </r>
[...]
       <r>    1.1992    1.0000 </r>
       <r>    1.6384    1.0000 </r>
       <r>    1.6384    1.0000 </r>
       <r>    2.0762    1.0000 </r>
       <r>    6.8606    1.0000 </r>
       <r>    7.2850    1.0000 </r>
       <r>    7.2850    1.0000 </r>
       <r>    7.7088    1.0114 </r>
       <r>   13.0296   -0.0000 </r>
       <r>   13.4359   -0.0000 </r>
       <r>   13.4359   -0.0000 </r>
       <r>   13.8415    0.0000 </r>
       <r>   17.3906    0.0000 </r>
       <r>   17.4858    0.0000 </r>
      </set>
      <set comment="kpoint 545">
       <r>    1.3769    1.0000 </r>
       <r>    1.8156    1.0000 </r>
       <r>    1.8156    1.0000 </r>
       <r>    2.2527    1.0000 </r>
       <r>    6.1864    1.0000 </r>
       <r>    6.6124    1.0000 </r>
       <r>    6.6124    1.0000 </r>
       <r>    7.0378    1.0000 </r>
       <r>   14.0024    0.0000 </r>
       <r>   14.4021    0.0000 </r>
       <r>   14.4021    0.0000 </r>
       <r>   14.8015    0.0000 </r>
       <r>   17.5477    0.0000 </r>
       <r>   17.6428    0.0000 </r>
      </set>
      <set comment="kpoint 546">
       <r>    1.5988    1.0000 </r>
       <r>    2.0367    1.0000 </r>
       <r>    2.0367    1.0000 </r>
       <r>    2.4729    1.0000 </r>
       <r>    5.5461    1.0000 </r>
       <r>    5.9733    1.0000 </r>
       <r>    5.9733    1.0000 </r>
       <r>    6.4001    1.0000 </r>
       <r>   15.0096    0.0000 </r>
       <r>   15.3994    0.0000 </r>
       <r>   15.3994    0.0000 </r>
       <r>   15.7897    0.0000 </r>
       <r>   17.7498    0.0000 </r>
       <r>   17.8380    0.0000 </r>
      </set>
      <set comment="kpoint 547">
       <r>    1.8645    1.0000 </r>
       <r>    2.3013    1.0000 </r>
       <r>    2.3013    1.0000 </r>
       <r>    2.7361    1.0000 </r>
       <r>    4.9440    1.0000 </r>
       <r>    5.3720    1.0000 </r>
       <r>    5.3720    1.0000 </r>
       <r>    5.7999    1.0000 </r>
       <r>   16.0407    0.0000 </r>
       <r>   16.4139    0.0000 </r>
       <r>   16.4139    0.0000 </r>
       <r>   16.7901    0.0000 </r>
       <r>   17.9799    0.0000 </r>
       <r>   18.0709    0.0000 </r>
      </set>
      <set comment="kpoint 548">
       <r>    2.1736    1.0000 </r>
       <r>    2.6089    1.0000 </r>
       <r>    2.6089    1.0000 </r>
       <r>    3.0405    1.0000 </r>
       <r>    4.3837    1.0000 </r>
       <r>    4.8109    1.0000 </r>
       <r>    4.8109    1.0000 </r>
       <r>    5.2394    1.0000 </r>
       <r>   17.0811    0.0000 </r>
       <r>   17.4220    0.0000 </r>
       <r>   17.4224    0.0000 </r>
       <r>   17.7758    0.0000 </r>
       <r>   18.2549    0.0000 </r>
       <r>   18.3393    0.0000 </r>
      </set>
      <set comment="kpoint 549">
       <r>    2.5255    1.0000 </r>
       <r>    2.9575    1.0000 </r>
       <r>    2.9575    1.0000 </r>
       <r>    3.3740    1.0000 </r>
       <r>    3.8785    1.0000 </r>
       <r>    4.2927    1.0000 </r>
       <r>    4.2927    1.0000 </r>
       <r>    4.7203    1.0000 </r>
       <r>   18.1056    0.0000 </r>
       <r>   18.3653    0.0000 </r>
       <r>   18.3737    0.0000 </r>
       <r>   18.5745    0.0000 </r>
       <r>   18.6366    0.0000 </r>
       <r>   18.6500    0.0000 </r>
      </set>
      <set comment="kpoint 550">
       <r>    2.9182    1.0000 </r>
       <r>    3.3347    1.0000 </r>
       <r>    3.3347    1.0000 </r>
       <r>    3.3385    1.0000 </r>
       <r>    3.8268    1.0000 </r>
       <r>    3.8306    1.0000 </r>
       <r>    3.8306    1.0000 </r>
       <r>    4.2449    1.0000 </r>
       <r>   18.9270    0.0000 </r>
       <r>   18.9301    0.0000 </r>
       <r>   18.9338    0.0000 </r>
       <r>   19.0108    0.0000 </r>
       <r>   19.0443    0.0000 </r>
       <r>   19.1667    0.0000 </r>
      </set>
     </set>
    </set>
   </array>
  </eigenvalues>
  <separator name="orbital magnetization" >
   <v name="MAGDIPOLOUT">      0.00000000      0.00000000      0.00000000</v>
  </separator>
  <dos>
   <i name="efermi">      8.08580078 </i>
   <total>
    <array>
     <dimension dim="1">gridpoints</dimension>
     <dimension dim="2">spin</dimension>
     <field>energy</field>
     <field>total</field>
     <field>integrated</field>
     <set>
      <set comment="spin 1">
       <r>    -5.0933     0.0000     0.0000 </r>
       <r>    -5.0058     0.0000     0.0000 </r>
       <r>    -4.9183     0.0000     0.0000 </r>
       <r>    -4.8307     0.0000     0.0000 </r>
       <r>    -4.7432    -0.0000    -0.0000 </r>
       <r>    -4.6557    -0.0000    -0.0000 </r>
       <r>    -4.5681    -0.0000    -0.0000 </r>
       <r>    -4.4806    -0.0000    -0.0000 </r>
       <r>    -4.3931    -0.0000    -0.0000 </r>
       <r>    -4.3055    -0.0000    -0.0000 </r>
       <r>    -4.2180    -0.0000    -0.0000 </r>
       <r>    -4.1305    -0.0000    -0.0000 </r>
       <r>    -4.0429    -0.0000    -0.0000 </r>
       <r>    -3.9554    -0.0000    -0.0000 </r>
       <r>    -3.8679    -0.0000    -0.0000 </r>
       <r>    -3.7803    -0.0000    -0.0000 </r>
       <r>    -3.6928    -0.0000    -0.0000 </r>
       <r>    -3.6053    -0.0000    -0.0000 </r>
       <r>    -3.5177    -0.0003    -0.0000 </r>
       <r>    -3.4302    -0.0015    -0.0002 </r>
       <r>    -3.3427    -0.0041    -0.0005 </r>
       <r>    -3.2551    -0.0050    -0.0010 </r>
       <r>    -3.1676     0.0071    -0.0003 </r>
       <r>    -3.0801     0.0456     0.0037 </r>
       <r>    -2.9925     0.1078     0.0131 </r>
       <r>    -2.9050     0.1736     0.0283 </r>
       <r>    -2.8175     0.2269     0.0482 </r>
       <r>    -2.7299     0.2669     0.0715 </r>
       <r>    -2.6424     0.3000     0.0978 </r>
       <r>    -2.5549     0.3288     0.1266 </r>
       <r>    -2.4673     0.3554     0.1577 </r>
       <r>    -2.3798     0.3826     0.1912 </r>
       <r>    -2.2922     0.4054     0.2267 </r>
       <r>    -2.2047     0.4250     0.2639 </r>
       <r>    -2.1172     0.4507     0.3033 </r>
       <r>    -2.0296     0.4741     0.3448 </r>
       <r>    -1.9421     0.4866     0.3874 </r>
       <r>    -1.8546     0.5028     0.4314 </r>
       <r>    -1.7670     0.5324     0.4780 </r>
       <r>    -1.6795     0.5551     0.5266 </r>
       <r>    -1.5920     0.5558     0.5753 </r>
       <r>    -1.5044     0.5654     0.6248 </r>
       <r>    -1.4169     0.6033     0.6776 </r>
       <r>    -1.3294     0.6298     0.7327 </r>
       <r>    -1.2418     0.6251     0.7874 </r>
       <r>    -1.1543     0.6254     0.8421 </r>
       <r>    -1.0668     0.6513     0.8992 </r>
       <r>    -0.9792     0.6847     0.9591 </r>
       <r>    -0.8917     0.7056     1.0209 </r>
       <r>    -0.8042     0.7068     1.0827 </r>
       <r>    -0.7166     0.6935     1.1434 </r>
       <r>    -0.6291     0.7016     1.2048 </r>
       <r>    -0.5416     0.7558     1.2710 </r>
       <r>    -0.4540     0.8009     1.3411 </r>
       <r>    -0.3665     0.7814     1.4095 </r>
       <r>    -0.2790     0.7436     1.4746 </r>
       <r>    -0.1914     0.7627     1.5414 </r>
       <r>    -0.1039     0.8208     1.6132 </r>
       <r>    -0.0164     0.8492     1.6875 </r>
       <r>     0.0712     0.8480     1.7618 </r>
       <r>     0.1587     0.8485     1.8360 </r>
       <r>     0.2462     0.8459     1.9101 </r>
       <r>     0.3338     0.8417     1.9838 </r>
       <r>     0.4213     0.8571     2.0588 </r>
       <r>     0.5088     0.9028     2.1378 </r>
       <r>     0.5964     0.9525     2.2212 </r>
       <r>     0.6839     0.9578     2.3050 </r>
       <r>     0.7714     0.9140     2.3850 </r>
       <r>     0.8590     0.8731     2.4615 </r>
       <r>     0.9465     0.8962     2.5399 </r>
       <r>     1.0340     0.9854     2.6262 </r>
       <r>     1.1216     1.0500     2.7181 </r>
       <r>     1.2091     1.0214     2.8075 </r>
       <r>     1.2966     0.9618     2.8917 </r>
       <r>     1.3842     0.9618     2.9759 </r>
       <r>     1.4717     1.0059     3.0639 </r>
       <r>     1.5592     1.0275     3.1538 </r>
       <r>     1.6468     1.0286     3.2439 </r>
       <r>     1.7343     1.0485     3.3357 </r>
       <r>     1.8218     1.0883     3.4309 </r>
       <r>     1.9094     1.1171     3.5287 </r>
       <r>     1.9969     1.1021     3.6252 </r>
       <r>     2.0844     1.0447     3.7166 </r>
       <r>     2.1720     1.0111     3.8051 </r>
       <r>     2.2595     1.0696     3.8988 </r>
       <r>     2.3470     1.1683     4.0010 </r>
       <r>     2.4346     1.2076     4.1067 </r>
       <r>     2.5221     1.1962     4.2114 </r>
       <r>     2.6096     1.1641     4.3133 </r>
       <r>     2.6972     1.1037     4.4099 </r>
       <r>     2.7847     1.0772     4.5042 </r>
       <r>     2.8722     1.1484     4.6048 </r>
       <r>     2.9598     1.2457     4.7138 </r>
       <r>     3.0473     1.2659     4.8246 </r>
       <r>     3.1348     1.2328     4.9325 </r>
       <r>     3.2224     1.2179     5.0391 </r>
       <r>     3.3099     1.2286     5.1467 </r>
       <r>     3.3974     1.2571     5.2567 </r>
       <r>     3.4850     1.2835     5.3690 </r>
       <r>     3.5725     1.2573     5.4791 </r>
       <r>     3.6600     1.1972     5.5839 </r>
       <r>     3.7476     1.2038     5.6893 </r>
       <r>     3.8351     1.3075     5.8037 </r>
       <r>     3.9226     1.3999     5.9263 </r>
       <r>     4.0102     1.3883     6.0478 </r>
       <r>     4.0977     1.3067     6.1622 </r>
       <r>     4.1852     1.2399     6.2707 </r>
       <r>     4.2728     1.2343     6.3787 </r>
       <r>     4.3603     1.2918     6.4918 </r>
       <r>     4.4478     1.3940     6.6138 </r>
       <r>     4.5354     1.4807     6.7434 </r>
       <r>     4.6229     1.4755     6.8726 </r>
       <r>     4.7104     1.3970     6.9949 </r>
       <r>     4.7980     1.3430     7.1124 </r>
       <r>     4.8855     1.3590     7.2314 </r>
       <r>     4.9730     1.4267     7.3563 </r>
       <r>     5.0606     1.5148     7.4889 </r>
       <r>     5.1481     1.5741     7.6267 </r>
       <r>     5.2356     1.5711     7.7642 </r>
       <r>     5.3232     1.5310     7.8982 </r>
       <r>     5.4107     1.4837     8.0281 </r>
       <r>     5.4982     1.4548     8.1554 </r>
       <r>     5.5858     1.4857     8.2855 </r>
       <r>     5.6733     1.5414     8.4204 </r>
       <r>     5.7608     1.5323     8.5545 </r>
       <r>     5.8484     1.4605     8.6824 </r>
       <r>     5.9359     1.3955     8.8045 </r>
       <r>     6.0234     1.3607     8.9236 </r>
       <r>     6.1110     1.3569     9.0424 </r>
       <r>     6.1985     1.4025     9.1652 </r>
       <r>     6.2860     1.4470     9.2918 </r>
       <r>     6.3736     1.4244     9.4165 </r>
       <r>     6.4611     1.3830     9.5376 </r>
       <r>     6.5486     1.3651     9.6571 </r>
       <r>     6.6362     1.3634     9.7764 </r>
       <r>     6.7237     1.4316     9.9017 </r>
       <r>     6.8112     1.5663    10.0388 </r>
       <r>     6.8988     1.6277    10.1813 </r>
       <r>     6.9863     1.5576    10.3176 </r>
       <r>     7.0738     1.4737    10.4466 </r>
       <r>     7.1614     1.4805    10.5762 </r>
       <r>     7.2489     1.5458    10.7116 </r>
       <r>     7.3364     1.5972    10.8514 </r>
       <r>     7.4240     1.6037    10.9917 </r>
       <r>     7.5115     1.5484    11.1273 </r>
       <r>     7.5990     1.4689    11.2559 </r>
       <r>     7.6866     1.4786    11.3853 </r>
       <r>     7.7741     1.5909    11.5246 </r>
       <r>     7.8616     1.6520    11.6692 </r>
       <r>     7.9492     1.5695    11.8065 </r>
       <r>     8.0367     1.4347    11.9321 </r>
       <r>     8.1242     1.3901    12.0538 </r>
       <r>     8.2118     1.5038    12.1854 </r>
       <r>     8.2993     1.7278    12.3367 </r>
       <r>     8.3868     1.9040    12.5034 </r>
       <r>     8.4744     1.8967    12.6694 </r>
       <r>     8.5619     1.7450    12.8221 </r>
       <r>     8.6494     1.5938    12.9616 </r>
       <r>     8.7370     1.5368    13.0962 </r>
       <r>     8.8245     1.5757    13.2341 </r>
       <r>     8.9120     1.6404    13.3777 </r>
       <r>     8.9996     1.6683    13.5237 </r>
       <r>     9.0871     1.6759    13.6704 </r>
       <r>     9.1746     1.6810    13.8175 </r>
       <r>     9.2622     1.6754    13.9642 </r>
       <r>     9.3497     1.7043    14.1134 </r>
       <r>     9.4372     1.7882    14.2699 </r>
       <r>     9.5248     1.8415    14.4311 </r>
       <r>     9.6123     1.8012    14.5888 </r>
       <r>     9.6998     1.7115    14.7386 </r>
       <r>     9.7874     1.6326    14.8815 </r>
       <r>     9.8749     1.5807    15.0198 </r>
       <r>     9.9624     1.5872    15.1588 </r>
       <r>    10.0500     1.7037    15.3079 </r>
       <r>    10.1375     1.8904    15.4734 </r>
       <r>    10.2250     2.0327    15.6513 </r>
       <r>    10.3126     2.0266    15.8287 </r>
       <r>    10.4001     1.8150    15.9876 </r>
       <r>    10.4876     1.5485    16.1231 </r>
       <r>    10.5752     1.5447    16.2583 </r>
       <r>    10.6627     1.8263    16.4182 </r>
       <r>    10.7502     2.0379    16.5966 </r>
       <r>    10.8378     1.9985    16.7715 </r>
       <r>    10.9253     1.8738    16.9355 </r>
       <r>    11.0128     1.7774    17.0911 </r>
       <r>    11.1004     1.7124    17.2410 </r>
       <r>    11.1879     1.7467    17.3939 </r>
       <r>    11.2754     1.8657    17.5572 </r>
       <r>    11.3630     1.9321    17.7263 </r>
       <r>    11.4505     1.9403    17.8962 </r>
       <r>    11.5380     1.9968    18.0710 </r>
       <r>    11.6256     2.0609    18.2514 </r>
       <r>    11.7131     2.0113    18.4274 </r>
       <r>    11.8006     1.8825    18.5922 </r>
       <r>    11.8882     1.8070    18.7504 </r>
       <r>    11.9757     1.8342    18.9109 </r>
       <r>    12.0632     1.9089    19.0780 </r>
       <r>    12.1508     1.9518    19.2489 </r>
       <r>    12.2383     1.9380    19.4185 </r>
       <r>    12.3258     1.9244    19.5869 </r>
       <r>    12.4134     2.0062    19.7626 </r>
       <r>    12.5009     2.1720    19.9527 </r>
       <r>    12.5884     2.2526    20.1499 </r>
       <r>    12.6760     2.1374    20.3370 </r>
       <r>    12.7635     1.9373    20.5065 </r>
       <r>    12.8510     1.8508    20.6685 </r>
       <r>    12.9386     1.9362    20.8380 </r>
       <r>    13.0261     2.0614    21.0185 </r>
       <r>    13.1136     2.1093    21.2031 </r>
       <r>    13.2012     2.1303    21.3896 </r>
       <r>    13.2887     2.1785    21.5803 </r>
       <r>    13.3762     2.1996    21.7728 </r>
       <r>    13.4638     2.1860    21.9642 </r>
       <r>    13.5513     2.1905    22.1559 </r>
       <r>    13.6388     2.2100    22.3494 </r>
       <r>    13.7264     2.2583    22.5470 </r>
       <r>    13.8139     2.3778    22.7552 </r>
       <r>    13.9015     2.4874    22.9729 </r>
       <r>    13.9890     2.4505    23.1874 </r>
       <r>    14.0765     2.2801    23.3870 </r>
       <r>    14.1641     2.1302    23.5734 </r>
       <r>    14.2516     2.1241    23.7594 </r>
       <r>    14.3391     2.2236    23.9540 </r>
       <r>    14.4267     2.2899    24.1545 </r>
       <r>    14.5142     2.2526    24.3516 </r>
       <r>    14.6017     2.1423    24.5392 </r>
       <r>    14.6893     2.0285    24.7167 </r>
       <r>    14.7768     1.9807    24.8901 </r>
       <r>    14.8643     1.9949    25.0647 </r>
       <r>    14.9519     2.0018    25.2399 </r>
       <r>    15.0394     1.9963    25.4147 </r>
       <r>    15.1269     2.0158    25.5911 </r>
       <r>    15.2145     1.9789    25.7644 </r>
       <r>    15.3020     1.7672    25.9191 </r>
       <r>    15.3895     1.4681    26.0476 </r>
       <r>    15.4771     1.3169    26.1628 </r>
       <r>    15.5646     1.4014    26.2855 </r>
       <r>    15.6521     1.5632    26.4223 </r>
       <r>    15.7397     1.5844    26.5610 </r>
       <r>    15.8272     1.4055    26.6841 </r>
       <r>    15.9147     1.1533    26.7850 </r>
       <r>    16.0023     0.9834    26.8711 </r>
       <r>    16.0898     0.9318    26.9527 </r>
       <r>    16.1773     0.9187    27.0331 </r>
       <r>    16.2649     0.8691    27.1091 </r>
       <r>    16.3524     0.7972    27.1789 </r>
       <r>    16.4399     0.7575    27.2452 </r>
       <r>    16.5275     0.7513    27.3110 </r>
       <r>    16.6150     0.7303    27.3749 </r>
       <r>    16.7025     0.6692    27.4335 </r>
       <r>    16.7901     0.5830    27.4845 </r>
       <r>    16.8776     0.5101    27.5292 </r>
       <r>    16.9651     0.4774    27.5710 </r>
       <r>    17.0527     0.4516    27.6105 </r>
       <r>    17.1402     0.3964    27.6452 </r>
       <r>    17.2277     0.3611    27.6768 </r>
       <r>    17.3153     0.3948    27.7114 </r>
       <r>    17.4028     0.4312    27.7491 </r>
       <r>    17.4903     0.3986    27.7840 </r>
       <r>    17.5779     0.3356    27.8134 </r>
       <r>    17.6654     0.2868    27.8385 </r>
       <r>    17.7529     0.2347    27.8590 </r>
       <r>    17.8405     0.1880    27.8755 </r>
       <r>    17.9280     0.1817    27.8914 </r>
       <r>    18.0155     0.1932    27.9083 </r>
       <r>    18.1031     0.1757    27.9237 </r>
       <r>    18.1906     0.1403    27.9359 </r>
       <r>    18.2781     0.1234    27.9467 </r>
       <r>    18.3657     0.1167    27.9570 </r>
       <r>    18.4532     0.0955    27.9653 </r>
       <r>    18.5407     0.0741    27.9718 </r>
       <r>    18.6283     0.0709    27.9780 </r>
       <r>    18.7158     0.0658    27.9838 </r>
       <r>    18.8033     0.0463    27.9878 </r>
       <r>    18.8909     0.0330    27.9907 </r>
       <r>    18.9784     0.0345    27.9937 </r>
       <r>    19.0659     0.0342    27.9967 </r>
       <r>    19.1535     0.0241    27.9988 </r>
       <r>    19.2410     0.0117    27.9999 </r>
       <r>    19.3285     0.0033    28.0001 </r>
       <r>    19.4161    -0.0003    28.0001 </r>
       <r>    19.5036    -0.0008    28.0000 </r>
       <r>    19.5911    -0.0004    28.0000 </r>
       <r>    19.6787    -0.0001    28.0000 </r>
       <r>    19.7662    -0.0000    28.0000 </r>
       <r>    19.8537    -0.0000    28.0000 </r>
       <r>    19.9413    -0.0000    28.0000 </r>
       <r>    20.0288    -0.0000    28.0000 </r>
       <r>    20.1163    -0.0000    28.0000 </r>
       <r>    20.2039    -0.0000    28.0000 </r>
       <r>    20.2914    -0.0000    28.0000 </r>
       <r>    20.3789    -0.0000    28.0000 </r>
       <r>    20.4665    -0.0000    28.0000 </r>
       <r>    20.5540     0.0000    28.0000 </r>
       <r>    20.6415     0.0000    28.0000 </r>
       <r>    20.7291     0.0000    28.0000 </r>
       <r>    20.8166     0.0000    28.0000 </r>
       <r>    20.9041     0.0000    28.0000 </r>
       <r>    20.9917     0.0000    28.0000 </r>
       <r>    21.0792     0.0000    28.0000 </r>
       <r>    21.1667     0.0000    28.0000 </r>
      </set>
     </set>
    </array>
   </total>
  </dos>
 </calculation>
 <structure name="finalpos" >
  <crystal>
   <varray name="basis" >
    <v>       4.01868430       0.00000000       0.00000000 </v>
    <v>      -0.00000000       4.03892969       0.00000000 </v>
    <v>       0.00000000       0.00000000       4.03892969 </v>
   </varray>
   <i name="volume">     65.55660844 </i>
   <varray name="rec_basis" >
    <v>       0.24883766       0.00000000      -0.00000000 </v>
    <v>       0.00000000       0.24759035      -0.00000000 </v>
    <v>       0.00000000      -0.00000000       0.24759035 </v>
   </varray>
  </crystal>
  <varray name="positions" >
   <v>       0.00000000       0.00000000       0.00000000 </v>
   <v>       0.00000000       0.50000000       0.50000000 </v>
   <v>       0.50000000       0.00000000       0.50000000 </v>
   <v>       0.50000000       0.50000000       0.00000000 </v>
  </varray>
 </structure>
</modeling>
