   1   1   0   0
  0.1000000E+04  0.1000000E-08  0.1000000E-08  0.1000000E-08  0.5000000E-15
   1.0000000000000000E-004
  CAR 
 Al atom                                 
      2.07466441     -7.93436179  301     -2.44058263      1.00000000
     -7.934  0.0000E+00  0.0000E+00
     -7.901  0.0000E+00  0.0000E+00
     -7.868  0.0000E+00  0.0000E+00
     -7.834  0.0000E+00  0.0000E+00
     -7.801  0.0000E+00  0.0000E+00
     -7.768  0.0000E+00  0.0000E+00
     -7.734  0.0000E+00  0.0000E+00
     -7.701  0.0000E+00  0.0000E+00
     -7.667  0.0000E+00  0.0000E+00
     -7.634  0.0000E+00  0.0000E+00
     -7.601  0.0000E+00  0.0000E+00
     -7.567  0.0000E+00  0.0000E+00
     -7.534  0.3461E-12  0.1155E-13
     -7.501  0.8024E-01  0.2677E-02
     -7.467  0.5728E+02  0.1914E+01
     -7.434  0.2584E+01  0.2000E+01
     -7.401  0.3724E-08  0.2000E+01
     -7.367  0.0000E+00  0.2000E+01
     -7.334  0.0000E+00  0.2000E+01
     -7.300  0.0000E+00  0.2000E+01
     -7.267  0.0000E+00  0.2000E+01
     -7.234  0.0000E+00  0.2000E+01
     -7.200  0.0000E+00  0.2000E+01
     -7.167  0.0000E+00  0.2000E+01
     -7.134  0.0000E+00  0.2000E+01
     -7.100  0.0000E+00  0.2000E+01
     -7.067  0.0000E+00  0.2000E+01
     -7.034  0.0000E+00  0.2000E+01
     -7.000  0.0000E+00  0.2000E+01
     -6.967  0.0000E+00  0.2000E+01
     -6.933  0.0000E+00  0.2000E+01
     -6.900  0.0000E+00  0.2000E+01
     -6.867  0.0000E+00  0.2000E+01
     -6.833  0.0000E+00  0.2000E+01
     -6.800  0.0000E+00  0.2000E+01
     -6.767  0.0000E+00  0.2000E+01
     -6.733  0.0000E+00  0.2000E+01
     -6.700  0.0000E+00  0.2000E+01
     -6.667  0.0000E+00  0.2000E+01
     -6.633  0.0000E+00  0.2000E+01
     -6.600  0.0000E+00  0.2000E+01
     -6.566  0.0000E+00  0.2000E+01
     -6.533  0.0000E+00  0.2000E+01
     -6.500  0.0000E+00  0.2000E+01
     -6.466  0.0000E+00  0.2000E+01
     -6.433  0.0000E+00  0.2000E+01
     -6.400  0.0000E+00  0.2000E+01
     -6.366  0.0000E+00  0.2000E+01
     -6.333  0.0000E+00  0.2000E+01
     -6.300  0.0000E+00  0.2000E+01
     -6.266  0.0000E+00  0.2000E+01
     -6.233  0.0000E+00  0.2000E+01
     -6.199  0.0000E+00  0.2000E+01
     -6.166  0.0000E+00  0.2000E+01
     -6.133  0.0000E+00  0.2000E+01
     -6.099  0.0000E+00  0.2000E+01
     -6.066  0.0000E+00  0.2000E+01
     -6.033  0.0000E+00  0.2000E+01
     -5.999  0.0000E+00  0.2000E+01
     -5.966  0.0000E+00  0.2000E+01
     -5.933  0.0000E+00  0.2000E+01
     -5.899  0.0000E+00  0.2000E+01
     -5.866  0.0000E+00  0.2000E+01
     -5.832  0.0000E+00  0.2000E+01
     -5.799  0.0000E+00  0.2000E+01
     -5.766  0.0000E+00  0.2000E+01
     -5.732  0.0000E+00  0.2000E+01
     -5.699  0.0000E+00  0.2000E+01
     -5.666  0.0000E+00  0.2000E+01
     -5.632  0.0000E+00  0.2000E+01
     -5.599  0.0000E+00  0.2000E+01
     -5.566  0.0000E+00  0.2000E+01
     -5.532  0.0000E+00  0.2000E+01
     -5.499  0.0000E+00  0.2000E+01
     -5.465  0.0000E+00  0.2000E+01
     -5.432  0.0000E+00  0.2000E+01
     -5.399  0.0000E+00  0.2000E+01
     -5.365  0.0000E+00  0.2000E+01
     -5.332  0.0000E+00  0.2000E+01
     -5.299  0.0000E+00  0.2000E+01
     -5.265  0.0000E+00  0.2000E+01
     -5.232  0.0000E+00  0.2000E+01
     -5.199  0.0000E+00  0.2000E+01
     -5.165  0.0000E+00  0.2000E+01
     -5.132  0.0000E+00  0.2000E+01
     -5.098  0.0000E+00  0.2000E+01
     -5.065  0.0000E+00  0.2000E+01
     -5.032  0.0000E+00  0.2000E+01
     -4.998  0.0000E+00  0.2000E+01
     -4.965  0.0000E+00  0.2000E+01
     -4.932  0.0000E+00  0.2000E+01
     -4.898  0.0000E+00  0.2000E+01
     -4.865  0.0000E+00  0.2000E+01
     -4.832  0.0000E+00  0.2000E+01
     -4.798  0.0000E+00  0.2000E+01
     -4.765  0.0000E+00  0.2000E+01
     -4.731  0.0000E+00  0.2000E+01
     -4.698  0.0000E+00  0.2000E+01
     -4.665  0.0000E+00  0.2000E+01
     -4.631  0.0000E+00  0.2000E+01
     -4.598  0.0000E+00  0.2000E+01
     -4.565  0.0000E+00  0.2000E+01
     -4.531  0.0000E+00  0.2000E+01
     -4.498  0.0000E+00  0.2000E+01
     -4.465  0.0000E+00  0.2000E+01
     -4.431  0.0000E+00  0.2000E+01
     -4.398  0.0000E+00  0.2000E+01
     -4.364  0.0000E+00  0.2000E+01
     -4.331  0.0000E+00  0.2000E+01
     -4.298  0.0000E+00  0.2000E+01
     -4.264  0.0000E+00  0.2000E+01
     -4.231  0.0000E+00  0.2000E+01
     -4.198  0.0000E+00  0.2000E+01
     -4.164  0.0000E+00  0.2000E+01
     -4.131  0.0000E+00  0.2000E+01
     -4.098  0.0000E+00  0.2000E+01
     -4.064  0.0000E+00  0.2000E+01
     -4.031  0.0000E+00  0.2000E+01
     -3.997  0.0000E+00  0.2000E+01
     -3.964  0.0000E+00  0.2000E+01
     -3.931  0.0000E+00  0.2000E+01
     -3.897  0.0000E+00  0.2000E+01
     -3.864  0.0000E+00  0.2000E+01
     -3.831  0.0000E+00  0.2000E+01
     -3.797  0.0000E+00  0.2000E+01
     -3.764  0.0000E+00  0.2000E+01
     -3.731  0.0000E+00  0.2000E+01
     -3.697  0.0000E+00  0.2000E+01
     -3.664  0.0000E+00  0.2000E+01
     -3.630  0.0000E+00  0.2000E+01
     -3.597  0.0000E+00  0.2000E+01
     -3.564  0.0000E+00  0.2000E+01
     -3.530  0.0000E+00  0.2000E+01
     -3.497  0.0000E+00  0.2000E+01
     -3.464  0.0000E+00  0.2000E+01
     -3.430  0.0000E+00  0.2000E+01
     -3.397  0.0000E+00  0.2000E+01
     -3.364  0.0000E+00  0.2000E+01
     -3.330  0.0000E+00  0.2000E+01
     -3.297  0.0000E+00  0.2000E+01
     -3.263  0.0000E+00  0.2000E+01
     -3.230  0.0000E+00  0.2000E+01
     -3.197  0.0000E+00  0.2000E+01
     -3.163  0.0000E+00  0.2000E+01
     -3.130  0.0000E+00  0.2000E+01
     -3.097  0.0000E+00  0.2000E+01
     -3.063  0.0000E+00  0.2000E+01
     -3.030  0.0000E+00  0.2000E+01
     -2.997  0.0000E+00  0.2000E+01
     -2.963  0.0000E+00  0.2000E+01
     -2.930  0.0000E+00  0.2000E+01
     -2.896  0.0000E+00  0.2000E+01
     -2.863  0.0000E+00  0.2000E+01
     -2.830  0.0000E+00  0.2000E+01
     -2.796  0.0000E+00  0.2000E+01
     -2.763  0.0000E+00  0.2000E+01
     -2.730  0.0000E+00  0.2000E+01
     -2.696  0.0000E+00  0.2000E+01
     -2.663  0.0000E+00  0.2000E+01
     -2.630  0.0000E+00  0.2000E+01
     -2.596  0.0000E+00  0.2000E+01
     -2.563  0.0000E+00  0.2000E+01
     -2.529  0.0000E+00  0.2000E+01
     -2.496  0.0000E+00  0.2000E+01
     -2.463  0.3653E-02  0.2000E+01
     -2.429  0.1314E+03  0.6383E+01
     -2.396  0.4846E+02  0.8000E+01
     -2.363  0.8700E-05  0.8000E+01
     -2.329  0.0000E+00  0.8000E+01
     -2.296  0.0000E+00  0.8000E+01
     -2.263  0.0000E+00  0.8000E+01
     -2.229  0.0000E+00  0.8000E+01
     -2.196  0.0000E+00  0.8000E+01
     -2.162  0.0000E+00  0.8000E+01
     -2.129  0.0000E+00  0.8000E+01
     -2.096  0.0000E+00  0.8000E+01
     -2.062  0.0000E+00  0.8000E+01
     -2.029  0.0000E+00  0.8000E+01
     -1.996  0.0000E+00  0.8000E+01
     -1.962  0.0000E+00  0.8000E+01
     -1.929  0.0000E+00  0.8000E+01
     -1.896  0.0000E+00  0.8000E+01
     -1.862  0.0000E+00  0.8000E+01
     -1.829  0.0000E+00  0.8000E+01
     -1.795  0.0000E+00  0.8000E+01
     -1.762  0.0000E+00  0.8000E+01
     -1.729  0.0000E+00  0.8000E+01
     -1.695  0.0000E+00  0.8000E+01
     -1.662  0.0000E+00  0.8000E+01
     -1.629  0.0000E+00  0.8000E+01
     -1.595  0.0000E+00  0.8000E+01
     -1.562  0.0000E+00  0.8000E+01
     -1.529  0.0000E+00  0.8000E+01
     -1.495  0.0000E+00  0.8000E+01
     -1.462  0.0000E+00  0.8000E+01
     -1.428  0.0000E+00  0.8000E+01
     -1.395  0.0000E+00  0.8000E+01
     -1.362  0.0000E+00  0.8000E+01
     -1.328  0.0000E+00  0.8000E+01
     -1.295  0.0000E+00  0.8000E+01
     -1.262  0.0000E+00  0.8000E+01
     -1.228  0.0000E+00  0.8000E+01
     -1.195  0.0000E+00  0.8000E+01
     -1.162  0.0000E+00  0.8000E+01
     -1.128  0.0000E+00  0.8000E+01
     -1.095  0.0000E+00  0.8000E+01
     -1.061  0.0000E+00  0.8000E+01
     -1.028  0.0000E+00  0.8000E+01
     -0.995  0.0000E+00  0.8000E+01
     -0.961  0.0000E+00  0.8000E+01
     -0.928  0.0000E+00  0.8000E+01
     -0.895  0.0000E+00  0.8000E+01
     -0.861  0.0000E+00  0.8000E+01
     -0.828  0.0000E+00  0.8000E+01
     -0.795  0.0000E+00  0.8000E+01
     -0.761  0.0000E+00  0.8000E+01
     -0.728  0.0000E+00  0.8000E+01
     -0.694  0.0000E+00  0.8000E+01
     -0.661  0.0000E+00  0.8000E+01
     -0.628  0.0000E+00  0.8000E+01
     -0.594  0.0000E+00  0.8000E+01
     -0.561  0.0000E+00  0.8000E+01
     -0.528  0.0000E+00  0.8000E+01
     -0.494  0.5649E-07  0.8000E+01
     -0.461  0.5915E+01  0.8197E+01
     -0.428  0.5401E+02  0.9999E+01
     -0.394  0.1815E-01  0.1000E+02
     -0.361  0.0000E+00  0.1000E+02
     -0.328  0.0000E+00  0.1000E+02
     -0.294  0.0000E+00  0.1000E+02
     -0.261  0.0000E+00  0.1000E+02
     -0.227  0.0000E+00  0.1000E+02
     -0.194  0.0000E+00  0.1000E+02
     -0.161  0.0000E+00  0.1000E+02
     -0.127  0.0000E+00  0.1000E+02
     -0.094  0.0000E+00  0.1000E+02
     -0.061  0.0000E+00  0.1000E+02
     -0.027  0.0000E+00  0.1000E+02
      0.006  0.0000E+00  0.1000E+02
      0.039  0.0000E+00  0.1000E+02
      0.073  0.0000E+00  0.1000E+02
      0.106  0.0000E+00  0.1000E+02
      0.140  0.0000E+00  0.1000E+02
      0.173  0.0000E+00  0.1000E+02
      0.206  0.0000E+00  0.1000E+02
      0.240  0.0000E+00  0.1000E+02
      0.273  0.0000E+00  0.1000E+02
      0.306  0.0000E+00  0.1000E+02
      0.340  0.0000E+00  0.1000E+02
      0.373  0.0000E+00  0.1000E+02
      0.406  0.0000E+00  0.1000E+02
      0.440  0.0000E+00  0.1000E+02
      0.473  0.0000E+00  0.1000E+02
      0.507  0.0000E+00  0.1000E+02
      0.540  0.0000E+00  0.1000E+02
      0.573  0.0000E+00  0.1000E+02
      0.607  0.0000E+00  0.1000E+02
      0.640  0.0000E+00  0.1000E+02
      0.673  0.0000E+00  0.1000E+02
      0.707  0.7043E-10  0.1000E+02
      0.740  0.1010E+01  0.1003E+02
      0.773  0.1177E+03  0.1396E+02
      0.807  0.1193E+01  0.1400E+02
      0.840  0.0000E+00  0.1400E+02
      0.874  0.0000E+00  0.1400E+02
      0.907  0.0000E+00  0.1400E+02
      0.940  0.0000E+00  0.1400E+02
      0.974  0.0000E+00  0.1400E+02
      1.007  0.0000E+00  0.1400E+02
      1.040  0.0000E+00  0.1400E+02
      1.074  0.0000E+00  0.1400E+02
      1.107  0.0000E+00  0.1400E+02
      1.140  0.0000E+00  0.1400E+02
      1.174  0.0000E+00  0.1400E+02
      1.207  0.3802E-03  0.1400E+02
      1.241  0.9840E+02  0.1728E+02
      1.274  0.8144E+02  0.2000E+02
      1.307  0.1187E-03  0.2000E+02
      1.341  0.0000E+00  0.2000E+02
      1.374  0.0000E+00  0.2000E+02
      1.407  0.8420E-08  0.2000E+02
      1.441  0.3348E+01  0.2011E+02
      1.474  0.5655E+02  0.2200E+02
      1.507  0.5282E-01  0.2200E+02
      1.541  0.0000E+00  0.2200E+02
      1.574  0.1117E-07  0.2200E+02
      1.608  0.7752E+01  0.2226E+02
      1.641  0.1718E+03  0.2799E+02
      1.674  0.2407E+00  0.2800E+02
      1.708  0.0000E+00  0.2800E+02
      1.741  0.0000E+00  0.2800E+02
      1.774  0.0000E+00  0.2800E+02
      1.808  0.0000E+00  0.2800E+02
      1.841  0.0000E+00  0.2800E+02
      1.874  0.0000E+00  0.2800E+02
      1.908  0.0000E+00  0.2800E+02
      1.941  0.0000E+00  0.2800E+02
      1.975  0.0000E+00  0.2800E+02
      2.008  0.0000E+00  0.2800E+02
      2.041  0.0000E+00  0.2800E+02
      2.075  0.0000E+00  0.2800E+02
