    1    1    1    1
  0.1000000E+04  0.1000000E-08  0.1000000E-08  0.1000000E-08  0.5000000E-15
   1.0000000000000000E-004
  CAR 
 Al atom                                 
      3      1     14

  0.1262379E-14  0.1262379E-14  0.1262379E-14  0.1000000E+01
      1         -7.479406   1.000000
      2         -2.433742   0.166667
      3         -2.433742   0.166667
      4         -2.433742   0.166667
      5         -0.451840   0.000000
      6          0.757027   0.000000
      7          0.757027   0.000000
      8          1.239741   0.000000
      9          1.239741   0.000000
     10          1.239741   0.000000
     11          1.452007   0.000000
     12          1.619709   0.000000
     13          1.619709   0.000000
     14          1.619709   0.000000
