       N       E                     dE             d eps       ncg     rms          rms(c)
DAV:   1     0.253916013074E+01    0.25392E+01   -0.15985E+02    28   0.365E+01
DAV:   2     0.120751507120E+00   -0.24184E+01   -0.24184E+01    42   0.487E+00
DAV:   3    -0.631621233129E-02   -0.12707E+00   -0.12238E+00    42   0.143E+00
DAV:   4    -0.689836846566E-02   -0.58216E-03   -0.57567E-03    28   0.144E-01
DAV:   5    -0.692422107372E-02   -0.25853E-04   -0.25834E-04    42   0.299E-02    0.375E-02
DAV:   6    -0.694011641814E-02   -0.15895E-04   -0.18749E-05    28   0.101E-02    0.219E-02
DAV:   7    -0.697192616344E-02   -0.31810E-04   -0.46126E-05    28   0.130E-02    0.448E-03
DAV:   8    -0.702244521845E-02   -0.50519E-04   -0.20290E-05    28   0.751E-03    0.158E-03
DAV:   9    -0.702919475508E-02   -0.67495E-05   -0.59764E-07    28   0.135E-03    0.114E-03
DAV:  10    -0.704255373063E-02   -0.13359E-04   -0.50071E-06    28   0.321E-03    0.960E-04
DAV:  11    -0.704452246858E-02   -0.19687E-05   -0.89220E-08    28   0.881E-04    0.337E-04
DAV:  12    -0.705092862115E-02   -0.64062E-05   -0.13391E-06    28   0.247E-03    0.144E-04
DAV:  13    -0.705158195129E-02   -0.65333E-06   -0.75469E-08    28   0.665E-04
   1 F= -.70515820E-02 E0= -.17514431E-02  d E =-.106003E-01
