<?xml version="1.0" encoding="ISO-8859-1"?>
<modeling>
 <generator>
  <i name="program" type="string">vasp </i>
  <i name="version" type="string">6.4.2  </i>
  <i name="subversion" type="string">20Jul23 (build Apr 22 2024 22:35:45) complex                          parallel </i>
  <i name="platform" type="string">LinuxGNU </i>
  <i name="date" type="string">2024 05 26 </i>
  <i name="time" type="string">18:51:39 </i>
 </generator>
 <incar>
  <i type="string" name="SYSTEM">Al atom</i>
  <i type="int" name="ISTART">     0</i>
  <i type="int" name="ICHARG">     2</i>
  <i name="EDIFF">      0.00000100</i>
  <i name="ENCUT">    400.00000000</i>
  <i type="string" name="LREAL">Auto</i>
  <i type="int" name="ISMEAR">     0</i>
  <i name="SIGMA">      0.01000000</i>
 </incar>
 <primitive_cell>
  <structure name="primitive_cell" >
   <crystal>
    <varray name="basis" >
     <v>      10.00000000       0.00000000       0.00000000 </v>
     <v>       0.00000000      10.00000000       0.00000000 </v>
     <v>       0.00000000       0.00000000      10.00000000 </v>
    </varray>
    <i name="volume">   1000.00000000 </i>
    <varray name="rec_basis" >
     <v>       0.10000000       0.00000000       0.00000000 </v>
     <v>       0.00000000       0.10000000       0.00000000 </v>
     <v>       0.00000000       0.00000000       0.10000000 </v>
    </varray>
   </crystal>
   <varray name="positions" >
    <v>       0.00000000       0.00000000       0.00000000 </v>
   </varray>
  </structure>
  <varray name="primitive_index" >
   <v type="int" >        1 </v>
  </varray>
 </primitive_cell>
 <kpoints>
  <generation param="Gamma">
   <v type="int" name="divisions">       1        1        1 </v>
   <v name="usershift">      0.00000000       0.00000000       0.00000000 </v>
   <v name="genvec1">      1.00000000       0.00000000       0.00000000 </v>
   <v name="genvec2">      0.00000000       1.00000000       0.00000000 </v>
   <v name="genvec3">      0.00000000       0.00000000       1.00000000 </v>
   <v name="shift">      0.00000000       0.00000000       0.00000000 </v>
  </generation>
  <varray name="kpointlist" >
   <v>       0.00000000       0.00000000       0.00000000 </v>
  </varray>
  <varray name="weights" >
   <v>       1.00000000 </v>
  </varray>
 </kpoints>
 <parameters>
  <separator name="general" >
   <i type="string" name="SYSTEM">Al atom</i>
   <i type="logical" name="LCOMPAT"> F  </i>
  </separator>
  <separator name="electronic" >
   <i type="string" name="PREC">normal</i>
   <i name="ENMAX">    400.00000000</i>
   <i name="ENAUG">    291.05200000</i>
   <i name="EDIFF">      0.00000100</i>
   <i type="int" name="IALGO">    38</i>
   <i type="int" name="IWAVPR">    10</i>
   <i type="int" name="NBANDS">    14</i>
   <i type="int" name="NBANDSLOW">    -1</i>
   <i type="int" name="NBANDSHIGH">    -1</i>
   <i name="NELECT">      3.00000000</i>
   <i type="int" name="TURBO">     0</i>
   <i type="int" name="IRESTART">     0</i>
   <i type="int" name="NREBOOT">     0</i>
   <i type="int" name="NMIN">     0</i>
   <i name="EREF">      0.00000000</i>
   <separator name="electronic smearing" >
    <i type="int" name="ISMEAR">     0</i>
    <i name="SIGMA">      0.01000000</i>
    <i name="KSPACING">      0.50000000</i>
    <i type="logical" name="KGAMMA"> T  </i>
    <i type="logical" name="KBLOWUP"> T  </i>
   </separator>
   <separator name="electronic projectors" >
    <i type="logical" name="LREAL"> T  </i>
    <v name="ROPT">     -0.00050000</v>
    <i type="int" name="LMAXPAW">  -100</i>
    <i type="int" name="LMAXMIX">     2</i>
    <i type="logical" name="NLSPLINE"> F  </i>
   </separator>
   <separator name="electronic startup" >
    <i type="int" name="ISTART">     0</i>
    <i type="int" name="ICHARG">     2</i>
    <i type="int" name="INIWAV">     1</i>
   </separator>
   <separator name="electronic spin" >
    <i type="int" name="ISPIN">     1</i>
    <i type="logical" name="LNONCOLLINEAR"> F  </i>
    <v name="MAGMOM">      1.00000000</v>
    <i name="NUPDOWN">     -1.00000000</i>
    <i type="logical" name="LSORBIT"> F  </i>
    <v name="SAXIS">      0.00000000      0.00000000      1.00000000</v>
    <i type="logical" name="LSPIRAL"> F  </i>
    <v name="QSPIRAL">      0.00000000      0.00000000      0.00000000</v>
    <i type="logical" name="LZEROZ"> F  </i>
   </separator>
   <separator name="electronic exchange-correlation" >
    <i type="logical" name="LASPH"> F  </i>
    <i type="logical" name="LMETAGGA"> F  </i>
   </separator>
   <separator name="electronic convergence" >
    <i type="int" name="NELM">    60</i>
    <i type="int" name="NELMDL">    -5</i>
    <i type="int" name="NELMIN">     2</i>
    <i name="ENINI">    400.00000000</i>
    <separator name="electronic convergence detail" >
     <i type="logical" name="LDIAG"> T  </i>
     <i type="logical" name="LSUBROT"> F  </i>
     <i name="WEIMIN">      0.00000000</i>
     <i name="EBREAK">      0.00000002</i>
     <i name="DEPER">      0.30000000</i>
     <i type="int" name="NRMM">     4</i>
     <i name="TIME">      0.40000000</i>
    </separator>
   </separator>
   <separator name="electronic mixer" >
    <i name="AMIX">      0.40000000</i>
    <i name="BMIX">      1.00000000</i>
    <i name="AMIN">      0.10000000</i>
    <i name="AMIX_MAG">      1.60000000</i>
    <i name="BMIX_MAG">      1.00000000</i>
    <separator name="electronic mixer details" >
     <i type="int" name="IMIX">     4</i>
     <i type="logical" name="MIXFIRST"> F  </i>
     <i type="int" name="MAXMIX">   -45</i>
     <i name="WC">    100.00000000</i>
     <i type="int" name="INIMIX">     1</i>
     <i type="int" name="MIXPRE">     1</i>
     <i type="int" name="MREMOVE">     5</i>
    </separator>
   </separator>
   <separator name="electronic dipolcorrection" >
    <i type="logical" name="LDIPOL"> F  </i>
    <i type="logical" name="LMONO"> F  </i>
    <i type="int" name="IDIPOL">     0</i>
    <i name="EPSILON">      1.00000000</i>
    <v name="DIPOL">   -100.00000000   -100.00000000   -100.00000000</v>
    <i name="EFIELD">      0.00000000</i>
   </separator>
  </separator>
  <separator name="grids" >
   <i type="int" name="NGX">    50</i>
   <i type="int" name="NGY">    50</i>
   <i type="int" name="NGZ">    50</i>
   <i type="int" name="NGXF">   100</i>
   <i type="int" name="NGYF">   100</i>
   <i type="int" name="NGZF">   100</i>
   <i type="logical" name="ADDGRID"> F  </i>
  </separator>
  <separator name="ionic" >
   <i type="int" name="NSW">     0</i>
   <i type="int" name="IBRION">    -1</i>
   <i type="int" name="MDALGO">     0</i>
   <i type="int" name="ISIF">     2</i>
   <i name="PSTRESS">      0.00000000</i>
   <i name="EDIFFG">      0.00001000</i>
   <i type="int" name="NFREE">     0</i>
   <i name="POTIM">      0.50000000</i>
   <i name="SMASS">     -3.00000000</i>
   <i name="SCALEE">      1.00000000</i>
  </separator>
  <separator name="ionic md" >
   <i name="TEBEG">      0.00010000</i>
   <i name="TEEND">      0.00010000</i>
   <i type="int" name="NBLOCK">     1</i>
   <i type="int" name="KBLOCK">     1</i>
   <i type="int" name="NPACO">   256</i>
   <i name="APACO">     10.00000000</i>
  </separator>
  <separator name="symmetry" >
   <i type="int" name="ISYM">     2</i>
   <i name="SYMPREC">      0.00001000</i>
  </separator>
  <separator name="dos" >
   <i type="int" name="LORBIT">     0</i>
   <v name="RWIGS">     -1.00000000</v>
   <i type="int" name="NEDOS">   301</i>
   <i name="EMIN">     10.00000000</i>
   <i name="EMAX">    -10.00000000</i>
   <i name="EFERMI">      0.00000000</i>
  </separator>
  <separator name="writing" >
   <i type="int" name="NWRITE">     2</i>
   <i type="logical" name="LWAVE"> T  </i>
   <i type="logical" name="LDOWNSAMPLE"> F  </i>
   <i type="logical" name="LCHARG"> T  </i>
   <i type="logical" name="LPARD"> F  </i>
   <i type="logical" name="LVTOT"> F  </i>
   <i type="logical" name="LVHAR"> F  </i>
   <i type="logical" name="LELF"> F  </i>
   <i type="logical" name="LOPTICS"> F  </i>
   <v name="STM">      0.00000000      0.00000000      0.00000000      0.00000000      0.00000000      0.00000000      0.00000000</v>
  </separator>
  <separator name="performance" >
   <i type="int" name="NPAR">    14</i>
   <i type="int" name="NSIM">     4</i>
   <i type="int" name="NBLK">    -1</i>
   <i type="logical" name="LPLANE"> T  </i>
   <i type="logical" name="LSCALAPACK"> T  </i>
   <i type="logical" name="LSCAAWARE"> F  </i>
   <i type="logical" name="LSCALU"> F  </i>
   <i type="logical" name="LASYNC"> F  </i>
   <i type="logical" name="LORBITALREAL"> F  </i>
  </separator>
  <separator name="miscellaneous" >
   <i type="int" name="IDIOT">     3</i>
   <i type="int" name="PHON_NSTRUCT">    -1</i>
   <i type="logical" name="LMUSIC"> F  </i>
   <v name="POMASS">     26.98100000</v>
   <v name="DARWINR">      0.00000000</v>
   <v name="DARWINV">      1.00000000</v>
   <i type="logical" name="LCORR"> T  </i>
  </separator>
  <i type="logical" name="GGA_COMPAT"> T  </i>
  <i type="logical" name="LBERRY"> F  </i>
  <i type="int" name="ICORELEVEL">     0</i>
  <i type="logical" name="LDAU"> F  </i>
  <i type="int" name="I_CONSTRAINED_M">     0</i>
  <separator name="electronic exchange-correlation" >
   <i type="string" name="GGA">--</i>
   <i type="int" name="VOSKOWN">     0</i>
   <i type="logical" name="LHFCALC"> F  </i>
   <i type="string" name="PRECFOCK"></i>
   <i type="logical" name="LSYMGRAD"> F  </i>
   <i type="logical" name="LHFONE"> F  </i>
   <i type="logical" name="LRHFCALC"> F  </i>
   <i type="logical" name="LTHOMAS"> F  </i>
   <i type="logical" name="LMODELHF"> F  </i>
   <i type="logical" name="LFOCKACE"> F  </i>
   <i name="ENCUT4O">     -1.00000000</i>
   <i type="int" name="EXXOEP">     0</i>
   <i type="int" name="FOURORBIT">     0</i>
   <i name="AEXX">      0.00000000</i>
   <i name="HFALPHA">      0.00000000</i>
   <i name="MCALPHA">      0.00000000</i>
   <i name="ALDAX">      1.00000000</i>
   <i name="AGGAX">      1.00000000</i>
   <i name="ALDAC">      1.00000000</i>
   <i name="AGGAC">      1.00000000</i>
   <i type="int" name="NKREDX">     1</i>
   <i type="int" name="NKREDY">     1</i>
   <i type="int" name="NKREDZ">     1</i>
   <i type="logical" name="SHIFTRED"> F  </i>
   <i type="logical" name="ODDONLY"> F  </i>
   <i type="logical" name="EVENONLY"> F  </i>
   <i type="int" name="LMAXFOCK">     0</i>
   <i type="int" name="NMAXFOCKAE">     0</i>
   <i type="logical" name="LFOCKAEDFT"> F  </i>
   <i name="HFSCREEN">      0.00000000</i>
   <i name="HFSCREENC">      0.00000000</i>
   <i type="int" name="NBANDSGWLOW">     0</i>
  </separator>
  <separator name="vdW DFT" >
   <i type="logical" name="LUSE_VDW"> F  </i>
   <i type="int" name="IVDW_NL">     1</i>
   <i type="logical" name="LSPIN_VDW"> F  </i>
   <i name="Zab_VDW">     -0.84910000</i>
   <i name="PARAM1">      0.12340000</i>
   <i name="PARAM2">      1.00000000</i>
   <i name="PARAM3">      0.00000000</i>
  </separator>
  <separator name="model GW" >
   <i type="int" name="MODEL_GW">     0</i>
   <i name="MODEL_EPS0">    600.00000000</i>
   <i name="MODEL_ALPHA">      1.00000000</i>
  </separator>
  <separator name="linear response parameters" >
   <i type="logical" name="LEPSILON"> F  </i>
   <i type="logical" name="LRPA"> F  </i>
   <i type="logical" name="LNABLA"> F  </i>
   <i type="logical" name="LVEL"> F  </i>
   <i name="CSHIFT">      0.10000000</i>
   <i name="OMEGAMAX">     -1.00000000</i>
   <i name="DEG_THRESHOLD">      0.00200000</i>
   <i name="RTIME">     -0.10000000</i>
   <i name="WPLASMAI">      0.00000000</i>
   <v name="DFIELD">      0.00000000      0.00000000      0.00000000</v>
   <v name="WPLASMA">      0.00000000      0.00000000      0.00000000      0.00000000      0.00000000      0.00000000      0.00000000      0.00000000      0.00000000</v>
  </separator>
  <separator name="orbital magnetization" >
   <i type="logical" name="NUCIND"> F  </i>
   <v name="MAGPOS">      0.00000000      0.00000000      0.00000000</v>
   <i type="logical" name="LNICSALL"> T  </i>
   <i type="logical" name="ORBITALMAG"> F  </i>
   <i type="logical" name="LMAGBLOCH"> F  </i>
   <i type="logical" name="LCHIMAG"> F  </i>
   <i type="logical" name="LGAUGE"> T  </i>
   <i type="int" name="MAGATOM">     0</i>
   <v name="MAGDIPOL">      0.00000000      0.00000000      0.00000000</v>
   <v name="AVECCONST">      0.00000000      0.00000000      0.00000000</v>
  </separator>
  <separator name="response functions" >
   <i type="logical" name="LALL_IN_ONE"> F  </i>
   <i type="int" name="IALL_IN_ONE">    -1</i>
   <i type="int" name="NBANDS_WAVE">    -1</i>
   <i type="logical" name="LFINITE_TEMPERATURE"> F  </i>
   <i type="logical" name="LADDER"> F  </i>
   <i type="logical" name="LRPAFORCE"> F  </i>
   <i type="logical" name="LFXC"> F  </i>
   <i type="logical" name="LHARTREE"> T  </i>
   <i type="int" name="IBSE">     0</i>
   <v type="int" name="KPOINT">    -1     0     0     0</v>
   <i type="logical" name="LTCTC"> F  </i>
   <i type="logical" name="LTCTE"> F  </i>
   <i type="logical" name="LTETE"> F  </i>
   <i type="logical" name="LTRIPLET"> F  </i>
   <i type="logical" name="LFXCEPS"> F  </i>
   <i type="logical" name="LFXHEG"> F  </i>
   <i type="int" name="NATURALO">     2</i>
   <i type="logical" name="LHOLEGF"> F  </i>
   <i type="logical" name="L2ORDER"> F  </i>
   <i type="logical" name="LDMP1"> F  </i>
   <i type="logical" name="LMP2LT"> F  </i>
   <i type="logical" name="LSMP2LT"> F  </i>
   <i type="logical" name="LGWLF"> F  </i>
   <i name="ENCUTGW">     -1.60000002</i>
   <i name="ENCUTGWSOFT">     -1.60000002</i>
   <i name="ENCUTLF">     -1.00000000</i>
   <i type="logical" name="LESF_SPLINES"> F  </i>
   <i type="int" name="LMAXMP2">    -1</i>
   <i name="SCISSOR">      0.00000000</i>
   <i type="int" name="NOMEGA">     0</i>
   <i type="int" name="NOMEGAR">     0</i>
   <i type="int" name="NBANDSGW">    -1</i>
   <i type="int" name="NBANDSO">    -1</i>
   <i type="int" name="NBANDSV">    -1</i>
   <i type="int" name="NELMGW">     1</i>
   <i type="int" name="NELMHF">     1</i>
   <i type="int" name="DIM">     3</i>
   <i type="int" name="IESPILON">     4</i>
   <i type="int" name="ANTIRES">     0</i>
   <i name="OMEGAMAX">    -30.00000000</i>
   <i name="OMEGAMIN">    -30.00000000</i>
   <i name="OMEGATL">   -200.00000000</i>
   <i type="int" name="OMEGAGRID">     0</i>
   <i name="CSHIFT">     -0.10000000</i>
   <i type="logical" name="LSELFENERGY"> F  </i>
   <i type="logical" name="LSPECTRAL"> F  </i>
   <i type="logical" name="LSPECTRALGW"> F  </i>
   <i type="logical" name="LSINGLES"> F  </i>
   <i type="logical" name="LFERMIGW"> F  </i>
   <i type="logical" name="ODDONLYGW"> F  </i>
   <i type="logical" name="EVENONLYGW"> F  </i>
   <i type="int" name="NKREDLFX">     1</i>
   <i type="int" name="NKREDLFY">     1</i>
   <i type="int" name="NKREDLFZ">     1</i>
   <i type="int" name="MAXMEM">  2800</i>
   <i type="int" name="TELESCOPE">     0</i>
   <i type="int" name="NTAUPAR">    -1</i>
   <i type="int" name="NOMEGAPAR">    -1</i>
   <i name="DAMP_NEWTON">      0.80000001</i>
   <i name="LAMBDA">      1.00000000</i>
  </separator>
  <separator name="External order field" >
   <i name="OFIELD_KAPPA">      0.00000000</i>
   <v name="OFIELD_K">      0.00000000      0.00000000      0.00000000</v>
   <i name="OFIELD_Q6_NEAR">      0.00000000</i>
   <i name="OFIELD_Q6_FAR">      0.00000000</i>
   <i name="OFIELD_A">      0.00000000</i>
  </separator>
  <separator name="optional k-points parameters" >
   <i type="int" name="KPOINTS_OPT_MODE">     1</i>
   <i type="logical" name="LKPOINTS_OPT"> F  </i>
  </separator>
 </parameters>
 <atominfo>
  <atoms>       1 </atoms>
  <types>       1 </types>
  <array name="atoms" >
   <dimension dim="1">ion</dimension>
   <field type="string">element</field>
   <field type="int">atomtype</field>
   <set>
    <rc><c>Al</c><c>   1</c></rc>
   </set>
  </array>
  <array name="atomtypes" >
   <dimension dim="1">type</dimension>
   <field type="int">atomspertype</field>
   <field type="string">element</field>
   <field>mass</field>
   <field>valence</field>
   <field type="string">pseudopotential</field>
   <set>
    <rc><c>   1</c><c>Al</c><c>     26.98100000</c><c>      3.00000000</c><c>  PAW_PBE Al 04Jan2001                  </c></rc>
   </set>
  </array>
 </atominfo>
 <structure name="initialpos" >
  <crystal>
   <varray name="basis" >
    <v>      10.00000000       0.00000000       0.00000000 </v>
    <v>       0.00000000      10.00000000       0.00000000 </v>
    <v>       0.00000000       0.00000000      10.00000000 </v>
   </varray>
   <i name="volume">   1000.00000000 </i>
   <varray name="rec_basis" >
    <v>       0.10000000       0.00000000       0.00000000 </v>
    <v>       0.00000000       0.10000000       0.00000000 </v>
    <v>       0.00000000       0.00000000       0.10000000 </v>
   </varray>
  </crystal>
  <varray name="positions" >
   <v>       0.00000000       0.00000000       0.00000000 </v>
  </varray>
 </structure>
 <calculation>
  <scstep>
   <time name="dav">    0.17    0.08</time>
   <time name="total">    0.38    0.19</time>
   <energy>
    <i name="alphaZ">     -0.00335881 </i>
    <i name="ewald">    -18.38541600 </i>
    <i name="hartreedc">    -21.56996705 </i>
    <i name="XCdc">    -28.07251685 </i>
    <i name="pawpsdc">     66.20015713 </i>
    <i name="pawaedc">    -34.24562076 </i>
    <i name="eentropy">     -0.00564190 </i>
    <i name="bandstr">    -14.91662995 </i>
    <i name="atom">     53.53815432 </i>
    <i name="e_fr_energy">      2.53916013 </i>
    <i name="e_wo_entrp">      2.54480203 </i>
    <i name="e_0_energy">      2.54198108 </i>
   </energy>
  </scstep>
  <scstep>
   <time name="dav">    0.23    0.12</time>
   <time name="total">    0.24    0.12</time>
   <energy>
    <i name="e_fr_energy">      0.12075151 </i>
    <i name="e_wo_entrp">      0.12639340 </i>
    <i name="e_0_energy">      0.12357246 </i>
   </energy>
  </scstep>
  <scstep>
   <time name="dav">    0.23    0.12</time>
   <time name="total">    0.23    0.12</time>
   <energy>
    <i name="e_fr_energy">     -0.00631621 </i>
    <i name="e_wo_entrp">      0.00427688 </i>
    <i name="e_0_energy">     -0.00101967 </i>
   </energy>
  </scstep>
  <scstep>
   <time name="dav">    0.17    0.08</time>
   <time name="total">    0.17    0.09</time>
   <energy>
    <i name="e_fr_energy">     -0.00689837 </i>
    <i name="e_wo_entrp">      0.00370189 </i>
    <i name="e_0_energy">     -0.00159824 </i>
   </energy>
  </scstep>
  <scstep>
   <time name="dav">    0.25    0.13</time>
   <time name="total">    0.37    0.20</time>
   <energy>
    <i name="e_fr_energy">     -0.00692422 </i>
    <i name="e_wo_entrp">      0.00367606 </i>
    <i name="e_0_energy">     -0.00162408 </i>
   </energy>
  </scstep>
  <scstep>
   <time name="dav">    0.17    0.09</time>
   <time name="total">    0.51    0.27</time>
   <energy>
    <i name="e_fr_energy">     -0.00694012 </i>
    <i name="e_wo_entrp">      0.00366016 </i>
    <i name="e_0_energy">     -0.00163998 </i>
   </energy>
  </scstep>
  <scstep>
   <time name="dav">    0.18    0.09</time>
   <time name="total">    0.50    0.26</time>
   <energy>
    <i name="e_fr_energy">     -0.00697193 </i>
    <i name="e_wo_entrp">      0.00362835 </i>
    <i name="e_0_energy">     -0.00167179 </i>
   </energy>
  </scstep>
  <scstep>
   <time name="dav">    0.17    0.09</time>
   <time name="total">    0.50    0.26</time>
   <energy>
    <i name="e_fr_energy">     -0.00702245 </i>
    <i name="e_wo_entrp">      0.00357783 </i>
    <i name="e_0_energy">     -0.00172231 </i>
   </energy>
  </scstep>
  <scstep>
   <time name="dav">    0.20    0.10</time>
   <time name="total">    0.61    0.32</time>
   <energy>
    <i name="e_fr_energy">     -0.00702919 </i>
    <i name="e_wo_entrp">      0.00357108 </i>
    <i name="e_0_energy">     -0.00172906 </i>
   </energy>
  </scstep>
  <scstep>
   <time name="dav">    0.21    0.10</time>
   <time name="total">    0.71    0.37</time>
   <energy>
    <i name="e_fr_energy">     -0.00704255 </i>
    <i name="e_wo_entrp">      0.00355772 </i>
    <i name="e_0_energy">     -0.00174241 </i>
   </energy>
  </scstep>
  <scstep>
   <time name="dav">    0.17    0.09</time>
   <time name="total">    0.51    0.27</time>
   <energy>
    <i name="e_fr_energy">     -0.00704452 </i>
    <i name="e_wo_entrp">      0.00355576 </i>
    <i name="e_0_energy">     -0.00174438 </i>
   </energy>
  </scstep>
  <scstep>
   <time name="dav">    0.31    0.16</time>
   <time name="total">    0.77    0.40</time>
   <energy>
    <i name="e_fr_energy">     -0.00705093 </i>
    <i name="e_wo_entrp">      0.00354935 </i>
    <i name="e_0_energy">     -0.00175079 </i>
   </energy>
  </scstep>
  <scstep>
   <time name="dav">    0.17    0.09</time>
   <time name="total">    0.39    0.19</time>
   <energy>
    <i name="alphaZ">     -0.00335881 </i>
    <i name="ewald">    -18.38541600 </i>
    <i name="hartreedc">    -21.64387873 </i>
    <i name="XCdc">    -28.06367890 </i>
    <i name="pawpsdc">     64.95714377 </i>
    <i name="pawaedc">    -33.00286292 </i>
    <i name="eentropy">     -0.01060028 </i>
    <i name="bandstr">    -17.39255403 </i>
    <i name="atom">     53.53815432 </i>
    <i name="e_fr_energy">     -0.00705158 </i>
    <i name="e_wo_entrp">      0.00354870 </i>
    <i name="e_0_energy">     -0.00175144 </i>
   </energy>
  </scstep>
  <structure>
   <crystal>
    <varray name="basis" >
     <v>      10.00000000       0.00000000       0.00000000 </v>
     <v>       0.00000000      10.00000000       0.00000000 </v>
     <v>       0.00000000       0.00000000      10.00000000 </v>
    </varray>
    <i name="volume">   1000.00000000 </i>
    <varray name="rec_basis" >
     <v>       0.10000000       0.00000000       0.00000000 </v>
     <v>       0.00000000       0.10000000       0.00000000 </v>
     <v>       0.00000000       0.00000000       0.10000000 </v>
    </varray>
   </crystal>
   <varray name="positions" >
    <v>       0.00000000       0.00000000       0.00000000 </v>
   </varray>
  </structure>
  <varray name="forces" >
   <v>       0.00000000      -0.00000000      -0.00000000 </v>
  </varray>
  <varray name="stress" >
   <v>       0.04265039      -0.00000000      -0.00000000 </v>
   <v>      -0.00000000       0.04265039      -0.00000000 </v>
   <v>       0.00000000       0.00000000       0.04265039 </v>
  </varray>
  <energy>
   <i name="e_fr_energy">     -0.00705158 </i>
   <i name="e_wo_entrp">      0.00354870 </i>
   <i name="e_0_energy">     -0.00175144 </i>
  </energy>
  <time name="totalsc">    8.28    5.03</time>
  <eigenvalues>
   <array>
    <dimension dim="1">band</dimension>
    <dimension dim="2">kpoint</dimension>
    <dimension dim="3">spin</dimension>
    <field>eigene</field>
    <field>occ</field>
    <set>
     <set comment="spin 1">
      <set comment="kpoint 1">
       <r>   -7.4794    1.0000 </r>
       <r>   -2.4337    0.1667 </r>
       <r>   -2.4337    0.1667 </r>
       <r>   -2.4337    0.1667 </r>
       <r>   -0.4518    0.0000 </r>
       <r>    0.7570    0.0000 </r>
       <r>    0.7570    0.0000 </r>
       <r>    1.2397    0.0000 </r>
       <r>    1.2397    0.0000 </r>
       <r>    1.2397    0.0000 </r>
       <r>    1.4520    0.0000 </r>
       <r>    1.6197    0.0000 </r>
       <r>    1.6197    0.0000 </r>
       <r>    1.6197    0.0000 </r>
      </set>
     </set>
    </set>
   </array>
  </eigenvalues>
  <separator name="orbital magnetization" >
   <v name="MAGDIPOLOUT">      0.00000000      0.00000000      0.00000000</v>
  </separator>
  <dos>
   <i name="efermi">     -2.44058263 </i>
   <total>
    <array>
     <dimension dim="1">gridpoints</dimension>
     <dimension dim="2">spin</dimension>
     <field>energy</field>
     <field>total</field>
     <field>integrated</field>
     <set>
      <set comment="spin 1">
       <r>    -7.9344     0.0000     0.0000 </r>
       <r>    -7.9010     0.0000     0.0000 </r>
       <r>    -7.8676     0.0000     0.0000 </r>
       <r>    -7.8343     0.0000     0.0000 </r>
       <r>    -7.8009     0.0000     0.0000 </r>
       <r>    -7.7675     0.0000     0.0000 </r>
       <r>    -7.7342     0.0000     0.0000 </r>
       <r>    -7.7008     0.0000     0.0000 </r>
       <r>    -7.6675     0.0000     0.0000 </r>
       <r>    -7.6341     0.0000     0.0000 </r>
       <r>    -7.6007     0.0000     0.0000 </r>
       <r>    -7.5674     0.0000     0.0000 </r>
       <r>    -7.5340     0.0000     0.0000 </r>
       <r>    -7.5006     0.0802     0.0027 </r>
       <r>    -7.4673    57.2817     1.9138 </r>
       <r>    -7.4339     2.5839     2.0000 </r>
       <r>    -7.4005     0.0000     2.0000 </r>
       <r>    -7.3672     0.0000     2.0000 </r>
       <r>    -7.3338     0.0000     2.0000 </r>
       <r>    -7.3005     0.0000     2.0000 </r>
       <r>    -7.2671     0.0000     2.0000 </r>
       <r>    -7.2337     0.0000     2.0000 </r>
       <r>    -7.2004     0.0000     2.0000 </r>
       <r>    -7.1670     0.0000     2.0000 </r>
       <r>    -7.1336     0.0000     2.0000 </r>
       <r>    -7.1003     0.0000     2.0000 </r>
       <r>    -7.0669     0.0000     2.0000 </r>
       <r>    -7.0335     0.0000     2.0000 </r>
       <r>    -7.0002     0.0000     2.0000 </r>
       <r>    -6.9668     0.0000     2.0000 </r>
       <r>    -6.9335     0.0000     2.0000 </r>
       <r>    -6.9001     0.0000     2.0000 </r>
       <r>    -6.8667     0.0000     2.0000 </r>
       <r>    -6.8334     0.0000     2.0000 </r>
       <r>    -6.8000     0.0000     2.0000 </r>
       <r>    -6.7666     0.0000     2.0000 </r>
       <r>    -6.7333     0.0000     2.0000 </r>
       <r>    -6.6999     0.0000     2.0000 </r>
       <r>    -6.6666     0.0000     2.0000 </r>
       <r>    -6.6332     0.0000     2.0000 </r>
       <r>    -6.5998     0.0000     2.0000 </r>
       <r>    -6.5665     0.0000     2.0000 </r>
       <r>    -6.5331     0.0000     2.0000 </r>
       <r>    -6.4997     0.0000     2.0000 </r>
       <r>    -6.4664     0.0000     2.0000 </r>
       <r>    -6.4330     0.0000     2.0000 </r>
       <r>    -6.3996     0.0000     2.0000 </r>
       <r>    -6.3663     0.0000     2.0000 </r>
       <r>    -6.3329     0.0000     2.0000 </r>
       <r>    -6.2996     0.0000     2.0000 </r>
       <r>    -6.2662     0.0000     2.0000 </r>
       <r>    -6.2328     0.0000     2.0000 </r>
       <r>    -6.1995     0.0000     2.0000 </r>
       <r>    -6.1661     0.0000     2.0000 </r>
       <r>    -6.1327     0.0000     2.0000 </r>
       <r>    -6.0994     0.0000     2.0000 </r>
       <r>    -6.0660     0.0000     2.0000 </r>
       <r>    -6.0326     0.0000     2.0000 </r>
       <r>    -5.9993     0.0000     2.0000 </r>
       <r>    -5.9659     0.0000     2.0000 </r>
       <r>    -5.9326     0.0000     2.0000 </r>
       <r>    -5.8992     0.0000     2.0000 </r>
       <r>    -5.8658     0.0000     2.0000 </r>
       <r>    -5.8325     0.0000     2.0000 </r>
       <r>    -5.7991     0.0000     2.0000 </r>
       <r>    -5.7657     0.0000     2.0000 </r>
       <r>    -5.7324     0.0000     2.0000 </r>
       <r>    -5.6990     0.0000     2.0000 </r>
       <r>    -5.6656     0.0000     2.0000 </r>
       <r>    -5.6323     0.0000     2.0000 </r>
       <r>    -5.5989     0.0000     2.0000 </r>
       <r>    -5.5656     0.0000     2.0000 </r>
       <r>    -5.5322     0.0000     2.0000 </r>
       <r>    -5.4988     0.0000     2.0000 </r>
       <r>    -5.4655     0.0000     2.0000 </r>
       <r>    -5.4321     0.0000     2.0000 </r>
       <r>    -5.3987     0.0000     2.0000 </r>
       <r>    -5.3654     0.0000     2.0000 </r>
       <r>    -5.3320     0.0000     2.0000 </r>
       <r>    -5.2987     0.0000     2.0000 </r>
       <r>    -5.2653     0.0000     2.0000 </r>
       <r>    -5.2319     0.0000     2.0000 </r>
       <r>    -5.1986     0.0000     2.0000 </r>
       <r>    -5.1652     0.0000     2.0000 </r>
       <r>    -5.1318     0.0000     2.0000 </r>
       <r>    -5.0985     0.0000     2.0000 </r>
       <r>    -5.0651     0.0000     2.0000 </r>
       <r>    -5.0317     0.0000     2.0000 </r>
       <r>    -4.9984     0.0000     2.0000 </r>
       <r>    -4.9650     0.0000     2.0000 </r>
       <r>    -4.9317     0.0000     2.0000 </r>
       <r>    -4.8983     0.0000     2.0000 </r>
       <r>    -4.8649     0.0000     2.0000 </r>
       <r>    -4.8316     0.0000     2.0000 </r>
       <r>    -4.7982     0.0000     2.0000 </r>
       <r>    -4.7648     0.0000     2.0000 </r>
       <r>    -4.7315     0.0000     2.0000 </r>
       <r>    -4.6981     0.0000     2.0000 </r>
       <r>    -4.6647     0.0000     2.0000 </r>
       <r>    -4.6314     0.0000     2.0000 </r>
       <r>    -4.5980     0.0000     2.0000 </r>
       <r>    -4.5647     0.0000     2.0000 </r>
       <r>    -4.5313     0.0000     2.0000 </r>
       <r>    -4.4979     0.0000     2.0000 </r>
       <r>    -4.4646     0.0000     2.0000 </r>
       <r>    -4.4312     0.0000     2.0000 </r>
       <r>    -4.3978     0.0000     2.0000 </r>
       <r>    -4.3645     0.0000     2.0000 </r>
       <r>    -4.3311     0.0000     2.0000 </r>
       <r>    -4.2977     0.0000     2.0000 </r>
       <r>    -4.2644     0.0000     2.0000 </r>
       <r>    -4.2310     0.0000     2.0000 </r>
       <r>    -4.1977     0.0000     2.0000 </r>
       <r>    -4.1643     0.0000     2.0000 </r>
       <r>    -4.1309     0.0000     2.0000 </r>
       <r>    -4.0976     0.0000     2.0000 </r>
       <r>    -4.0642     0.0000     2.0000 </r>
       <r>    -4.0308     0.0000     2.0000 </r>
       <r>    -3.9975     0.0000     2.0000 </r>
       <r>    -3.9641     0.0000     2.0000 </r>
       <r>    -3.9308     0.0000     2.0000 </r>
       <r>    -3.8974     0.0000     2.0000 </r>
       <r>    -3.8640     0.0000     2.0000 </r>
       <r>    -3.8307     0.0000     2.0000 </r>
       <r>    -3.7973     0.0000     2.0000 </r>
       <r>    -3.7639     0.0000     2.0000 </r>
       <r>    -3.7306     0.0000     2.0000 </r>
       <r>    -3.6972     0.0000     2.0000 </r>
       <r>    -3.6638     0.0000     2.0000 </r>
       <r>    -3.6305     0.0000     2.0000 </r>
       <r>    -3.5971     0.0000     2.0000 </r>
       <r>    -3.5638     0.0000     2.0000 </r>
       <r>    -3.5304     0.0000     2.0000 </r>
       <r>    -3.4970     0.0000     2.0000 </r>
       <r>    -3.4637     0.0000     2.0000 </r>
       <r>    -3.4303     0.0000     2.0000 </r>
       <r>    -3.3969     0.0000     2.0000 </r>
       <r>    -3.3636     0.0000     2.0000 </r>
       <r>    -3.3302     0.0000     2.0000 </r>
       <r>    -3.2968     0.0000     2.0000 </r>
       <r>    -3.2635     0.0000     2.0000 </r>
       <r>    -3.2301     0.0000     2.0000 </r>
       <r>    -3.1968     0.0000     2.0000 </r>
       <r>    -3.1634     0.0000     2.0000 </r>
       <r>    -3.1300     0.0000     2.0000 </r>
       <r>    -3.0967     0.0000     2.0000 </r>
       <r>    -3.0633     0.0000     2.0000 </r>
       <r>    -3.0299     0.0000     2.0000 </r>
       <r>    -2.9966     0.0000     2.0000 </r>
       <r>    -2.9632     0.0000     2.0000 </r>
       <r>    -2.9298     0.0000     2.0000 </r>
       <r>    -2.8965     0.0000     2.0000 </r>
       <r>    -2.8631     0.0000     2.0000 </r>
       <r>    -2.8298     0.0000     2.0000 </r>
       <r>    -2.7964     0.0000     2.0000 </r>
       <r>    -2.7630     0.0000     2.0000 </r>
       <r>    -2.7297     0.0000     2.0000 </r>
       <r>    -2.6963     0.0000     2.0000 </r>
       <r>    -2.6629     0.0000     2.0000 </r>
       <r>    -2.6296     0.0000     2.0000 </r>
       <r>    -2.5962     0.0000     2.0000 </r>
       <r>    -2.5629     0.0000     2.0000 </r>
       <r>    -2.5295     0.0000     2.0000 </r>
       <r>    -2.4961     0.0000     2.0000 </r>
       <r>    -2.4628     0.0037     2.0001 </r>
       <r>    -2.4294   131.3729     6.3832 </r>
       <r>    -2.3960    48.4611     8.0000 </r>
       <r>    -2.3627     0.0000     8.0000 </r>
       <r>    -2.3293     0.0000     8.0000 </r>
       <r>    -2.2959     0.0000     8.0000 </r>
       <r>    -2.2626     0.0000     8.0000 </r>
       <r>    -2.2292     0.0000     8.0000 </r>
       <r>    -2.1959     0.0000     8.0000 </r>
       <r>    -2.1625     0.0000     8.0000 </r>
       <r>    -2.1291     0.0000     8.0000 </r>
       <r>    -2.0958     0.0000     8.0000 </r>
       <r>    -2.0624     0.0000     8.0000 </r>
       <r>    -2.0290     0.0000     8.0000 </r>
       <r>    -1.9957     0.0000     8.0000 </r>
       <r>    -1.9623     0.0000     8.0000 </r>
       <r>    -1.9289     0.0000     8.0000 </r>
       <r>    -1.8956     0.0000     8.0000 </r>
       <r>    -1.8622     0.0000     8.0000 </r>
       <r>    -1.8289     0.0000     8.0000 </r>
       <r>    -1.7955     0.0000     8.0000 </r>
       <r>    -1.7621     0.0000     8.0000 </r>
       <r>    -1.7288     0.0000     8.0000 </r>
       <r>    -1.6954     0.0000     8.0000 </r>
       <r>    -1.6620     0.0000     8.0000 </r>
       <r>    -1.6287     0.0000     8.0000 </r>
       <r>    -1.5953     0.0000     8.0000 </r>
       <r>    -1.5619     0.0000     8.0000 </r>
       <r>    -1.5286     0.0000     8.0000 </r>
       <r>    -1.4952     0.0000     8.0000 </r>
       <r>    -1.4619     0.0000     8.0000 </r>
       <r>    -1.4285     0.0000     8.0000 </r>
       <r>    -1.3951     0.0000     8.0000 </r>
       <r>    -1.3618     0.0000     8.0000 </r>
       <r>    -1.3284     0.0000     8.0000 </r>
       <r>    -1.2950     0.0000     8.0000 </r>
       <r>    -1.2617     0.0000     8.0000 </r>
       <r>    -1.2283     0.0000     8.0000 </r>
       <r>    -1.1950     0.0000     8.0000 </r>
       <r>    -1.1616     0.0000     8.0000 </r>
       <r>    -1.1282     0.0000     8.0000 </r>
       <r>    -1.0949     0.0000     8.0000 </r>
       <r>    -1.0615     0.0000     8.0000 </r>
       <r>    -1.0281     0.0000     8.0000 </r>
       <r>    -0.9948     0.0000     8.0000 </r>
       <r>    -0.9614     0.0000     8.0000 </r>
       <r>    -0.9280     0.0000     8.0000 </r>
       <r>    -0.8947     0.0000     8.0000 </r>
       <r>    -0.8613     0.0000     8.0000 </r>
       <r>    -0.8280     0.0000     8.0000 </r>
       <r>    -0.7946     0.0000     8.0000 </r>
       <r>    -0.7612     0.0000     8.0000 </r>
       <r>    -0.7279     0.0000     8.0000 </r>
       <r>    -0.6945     0.0000     8.0000 </r>
       <r>    -0.6611     0.0000     8.0000 </r>
       <r>    -0.6278     0.0000     8.0000 </r>
       <r>    -0.5944     0.0000     8.0000 </r>
       <r>    -0.5610     0.0000     8.0000 </r>
       <r>    -0.5277     0.0000     8.0000 </r>
       <r>    -0.4943     0.0000     8.0000 </r>
       <r>    -0.4610     5.9150     8.1973 </r>
       <r>    -0.4276    54.0128     9.9994 </r>
       <r>    -0.3942     0.0181    10.0000 </r>
       <r>    -0.3609     0.0000    10.0000 </r>
       <r>    -0.3275     0.0000    10.0000 </r>
       <r>    -0.2941     0.0000    10.0000 </r>
       <r>    -0.2608     0.0000    10.0000 </r>
       <r>    -0.2274     0.0000    10.0000 </r>
       <r>    -0.1940     0.0000    10.0000 </r>
       <r>    -0.1607     0.0000    10.0000 </r>
       <r>    -0.1273     0.0000    10.0000 </r>
       <r>    -0.0940     0.0000    10.0000 </r>
       <r>    -0.0606     0.0000    10.0000 </r>
       <r>    -0.0272     0.0000    10.0000 </r>
       <r>     0.0061     0.0000    10.0000 </r>
       <r>     0.0395     0.0000    10.0000 </r>
       <r>     0.0729     0.0000    10.0000 </r>
       <r>     0.1062     0.0000    10.0000 </r>
       <r>     0.1396     0.0000    10.0000 </r>
       <r>     0.1729     0.0000    10.0000 </r>
       <r>     0.2063     0.0000    10.0000 </r>
       <r>     0.2397     0.0000    10.0000 </r>
       <r>     0.2730     0.0000    10.0000 </r>
       <r>     0.3064     0.0000    10.0000 </r>
       <r>     0.3398     0.0000    10.0000 </r>
       <r>     0.3731     0.0000    10.0000 </r>
       <r>     0.4065     0.0000    10.0000 </r>
       <r>     0.4399     0.0000    10.0000 </r>
       <r>     0.4732     0.0000    10.0000 </r>
       <r>     0.5066     0.0000    10.0000 </r>
       <r>     0.5399     0.0000    10.0000 </r>
       <r>     0.5733     0.0000    10.0000 </r>
       <r>     0.6067     0.0000    10.0000 </r>
       <r>     0.6400     0.0000    10.0000 </r>
       <r>     0.6734     0.0000    10.0000 </r>
       <r>     0.7068     0.0000    10.0000 </r>
       <r>     0.7401     1.0100    10.0337 </r>
       <r>     0.7735   117.6891    13.9602 </r>
       <r>     0.8069     1.1927    14.0000 </r>
       <r>     0.8402     0.0000    14.0000 </r>
       <r>     0.8736     0.0000    14.0000 </r>
       <r>     0.9069     0.0000    14.0000 </r>
       <r>     0.9403     0.0000    14.0000 </r>
       <r>     0.9737     0.0000    14.0000 </r>
       <r>     1.0070     0.0000    14.0000 </r>
       <r>     1.0404     0.0000    14.0000 </r>
       <r>     1.0738     0.0000    14.0000 </r>
       <r>     1.1071     0.0000    14.0000 </r>
       <r>     1.1405     0.0000    14.0000 </r>
       <r>     1.1739     0.0000    14.0000 </r>
       <r>     1.2072     0.0004    14.0000 </r>
       <r>     1.2406    98.3960    17.2828 </r>
       <r>     1.2739    81.4412    20.0000 </r>
       <r>     1.3073     0.0001    20.0000 </r>
       <r>     1.3407     0.0000    20.0000 </r>
       <r>     1.3740     0.0000    20.0000 </r>
       <r>     1.4074     0.0000    20.0000 </r>
       <r>     1.4408     3.3476    20.1117 </r>
       <r>     1.4741    56.5455    21.9982 </r>
       <r>     1.5075     0.0528    22.0000 </r>
       <r>     1.5408     0.0000    22.0000 </r>
       <r>     1.5742     0.0000    22.0000 </r>
       <r>     1.6076     7.7518    22.2586 </r>
       <r>     1.6409   171.8452    27.9920 </r>
       <r>     1.6743     0.2407    28.0000 </r>
       <r>     1.7077     0.0000    28.0000 </r>
       <r>     1.7410     0.0000    28.0000 </r>
       <r>     1.7744     0.0000    28.0000 </r>
       <r>     1.8078     0.0000    28.0000 </r>
       <r>     1.8411     0.0000    28.0000 </r>
       <r>     1.8745     0.0000    28.0000 </r>
       <r>     1.9078     0.0000    28.0000 </r>
       <r>     1.9412     0.0000    28.0000 </r>
       <r>     1.9746     0.0000    28.0000 </r>
       <r>     2.0079     0.0000    28.0000 </r>
       <r>     2.0413     0.0000    28.0000 </r>
       <r>     2.0747     0.0000    28.0000 </r>
      </set>
     </set>
    </array>
   </total>
  </dos>
 </calculation>
 <structure name="finalpos" >
  <crystal>
   <varray name="basis" >
    <v>      10.00000000       0.00000000       0.00000000 </v>
    <v>       0.00000000      10.00000000       0.00000000 </v>
    <v>       0.00000000       0.00000000      10.00000000 </v>
   </varray>
   <i name="volume">   1000.00000000 </i>
   <varray name="rec_basis" >
    <v>       0.10000000       0.00000000       0.00000000 </v>
    <v>       0.00000000       0.10000000       0.00000000 </v>
    <v>       0.00000000       0.00000000       0.10000000 </v>
   </varray>
  </crystal>
  <varray name="positions" >
   <v>       0.00000000       0.00000000       0.00000000 </v>
  </varray>
 </structure>
</modeling>
