
16 atoms
1 atom types
   0.0000000000    2.8637816768 xlo xhi
   0.0000000000    8.5913450303 ylo yhi
   0.0000000000   24.2999933218 zlo zhi
  -0.0000000000    0.0100000000    0.0000000000 xy xz yz

Atoms # atomic

     1      1    2.5067811894    0.8352696557    2.3624993507
     2      1    2.5062256338    4.6536452247    1.0124997217
     3      1    1.0746125732    7.0401299554    1.6874995362
     4      1    1.0740570177    2.2671604941    0.3374999072
     5      1    2.5078923005    1.7898635480    5.0624986087
     6      1    2.5073367449    5.6082391170    3.7124989797
     7      1    1.0757236843    7.9947238476    4.3874987942
     8      1    1.0751681288    3.2217543863    3.0374991652
     9      1    2.5090034116    2.7444574402    7.7624978667
    10      1    2.5084478560    6.5628330093    6.4124982377
    11      1    1.0768347954    0.3579727096    7.0874980522
    12      1    1.0762792399    4.1763482786    5.7374984232
    13      1    2.5101145227    3.6990513325   10.4624971246
    14      1    2.5095589672    7.5174269015    9.1124974957
    15      1    1.0779459065    1.3125666018    9.7874973102
    16      1    1.0773903510    5.1309421709    8.4374976812
