ITEM: TIMESTEP
0
ITEM: NUMBER OF ATOMS
16
ITEM: BOX BOUNDS xy xz yz pp pp pp
0.0000000000000000e+00 2.8737816767999997e+00 -0.0000000000000000e+00
0.0000000000000000e+00 8.5913450302999994e+00 1.0000000000000000e-02
0.0000000000000000e+00 2.4299993321799999e+01 0.0000000000000000e+00
ITEM: ATOMS id type xs ys zs fx fy fz
1 1 0.875 0.0972222 0.0972222 -0.000247127 -0.524346 -0.374506
4 1 0.375 0.263889 0.0138889 0.000814373 -0.292701 -0.618655
8 1 0.375 0.375 0.125 -9.36395e-05 -0.0638343 0.938874
5 1 0.875 0.208333 0.208333 7.74712e-05 0.0665625 0.188267
12 1 0.375 0.486111 0.236111 -7.74713e-05 -0.0665625 -0.188267
9 1 0.875 0.319444 0.319444 9.36394e-05 0.0638343 -0.938874
11 1 0.375 0.0416667 0.291667 0.00016366 0.222622 -0.787087
15 1 0.375 0.152778 0.402778 -0.000593547 -0.658949 0.661538
13 1 0.875 0.430556 0.430556 -0.000814373 0.292701 0.618655
2 1 0.875 0.541667 0.0416667 0.000593547 0.658949 -0.661538
3 1 0.375 0.819444 0.0694444 0.000675492 0.337197 -0.672254
6 1 0.875 0.652778 0.152778 -0.000163659 -0.222622 0.787087
7 1 0.375 0.930556 0.180556 0.000122118 0.0407971 0.412724
10 1 0.875 0.763889 0.263889 -0.000122118 -0.0407971 -0.412724
14 1 0.875 0.875 0.375 -0.000675492 -0.337197 0.672254
16 1 0.375 0.597222 0.347222 0.000247127 0.524346 0.374506
