ITEM: TIMESTEP
0
ITEM: NUMBER OF ATOMS
4
ITEM: BOX BOUNDS xy xz yz pp pp pp
0.0000000000000000e+00 4.0319999997000000e+00 0.0000000000000000e+00
0.0000000000000000e+00 4.0521098500999999e+00 0.0000000000000000e+00
0.0000000000000000e+00 4.0319999997000000e+00 0.0000000000000000e+00
ITEM: ATOMS id type xs ys zs fx fy fz
1 1 0 0 0 -2.27218e-10 -2.25504e-10 -2.27218e-10
4 1 0.5 0 0.5 2.27218e-10 -2.25504e-10 2.27218e-10
2 1 0 0.5 0.5 -2.27218e-10 2.25504e-10 2.27218e-10
3 1 0.5 0.5 0 2.27218e-10 2.25504e-10 -2.27218e-10
ITEM: TIMESTEP
1
ITEM: NUMBER OF ATOMS
4
ITEM: BOX BOUNDS xy xz yz pp pp pp
0.0000000000000000e+00 4.0319999997000000e+00 0.0000000000000000e+00
0.0000000000000000e+00 4.0521098500999999e+00 0.0000000000000000e+00
0.0000000000000000e+00 4.0319999997000000e+00 0.0000000000000000e+00
ITEM: ATOMS id type xs ys zs fx fy fz
2 1 1 0.5 0.5 5.66658e-13 1.14091e-12 -5.66359e-13
3 1 0.5 0.5 1 -5.66342e-13 1.14151e-12 5.66046e-13
4 1 0.5 1 0.5 -5.66658e-13 -1.14059e-12 -5.65476e-13
1 1 1 1 1 5.66325e-13 -1.14187e-12 5.6579e-13
