ITEM: TIMESTEP
0
ITEM: NUMBER OF ATOMS
4
ITEM: BOX BOUNDS xy xz yz pp pp pp
0.0000000000000000e+00 3.9914763580999999e+00 0.0000000000000000e+00
0.0000000000000000e+00 4.0319999997000000e+00 0.0000000000000000e+00
0.0000000000000000e+00 4.0319999997000000e+00 0.0000000000000000e+00
ITEM: ATOMS id type xs ys zs fx fy fz
1 1 0 0 0 -2.43183e-10 -2.39979e-10 -2.39979e-10
3 1 0.5 0.5 0 2.43182e-10 2.39979e-10 -2.39979e-10
2 1 0 0.5 0.5 -2.43182e-10 2.39979e-10 2.39979e-10
4 1 0.5 0 0.5 2.43182e-10 -2.39979e-10 2.39979e-10
ITEM: TIMESTEP
1
ITEM: NUMBER OF ATOMS
4
ITEM: BOX BOUNDS xy xz yz pp pp pp
0.0000000000000000e+00 3.9914763580999999e+00 0.0000000000000000e+00
0.0000000000000000e+00 4.0319999997000000e+00 0.0000000000000000e+00
0.0000000000000000e+00 4.0319999997000000e+00 0.0000000000000000e+00
ITEM: ATOMS id type xs ys zs fx fy fz
2 1 1 0.5 0.5 2.13513e-12 1.08007e-12 1.08008e-12
3 1 0.5 0.5 1 -2.13549e-12 1.07971e-12 -1.08007e-12
4 1 0.5 1 0.5 -2.13542e-12 -1.08007e-12 1.07977e-12
1 1 1 1 1 2.13581e-12 -1.07972e-12 -1.07974e-12
