
4 atoms
1 atom types
   0.0000000000    3.6677997216 xlo xhi
   0.0000000000    3.6677997216 ylo yhi
   0.0000000000    3.6677997216 zlo zhi
  -0.0000000000   -0.0000000000   -0.0000000000 xy xz yz

Atoms # atomic

     1      1    0.0000000000    0.0000000000    0.0000000000
     2      1    0.0000000000    1.8338998609    1.8338998609
     3      1    1.8338998609    1.8338998609    0.0000000000
     4      1    1.8338998609    0.0000000000    1.8338998609
