ITEM: TIMESTEP
0
ITEM: NUMBER OF ATOMS
4
ITEM: BOX BOUNDS xy xz yz pp pp pp
0.0000000000000000e+00 3.6677997215999998e+00 -0.0000000000000000e+00
0.0000000000000000e+00 3.6677997215999998e+00 -0.0000000000000000e+00
0.0000000000000000e+00 3.6677997215999998e+00 -0.0000000000000000e+00
ITEM: ATOMS id type xs ys zs fx fy fz
1 1 0 0 0 1.22865e-09 1.22865e-09 1.22865e-09
4 1 0.5 0 0.5 -1.22865e-09 1.22865e-09 -1.22865e-09
3 1 0.5 0.5 0 -1.22865e-09 -1.22865e-09 1.22865e-09
2 1 0 0.5 0.5 1.22865e-09 -1.22865e-09 -1.22865e-09
ITEM: TIMESTEP
1
ITEM: NUMBER OF ATOMS
4
ITEM: BOX BOUNDS xy xz yz pp pp pp
0.0000000000000000e+00 3.6677997215999998e+00 -0.0000000000000000e+00
0.0000000000000000e+00 3.6677997215999998e+00 -0.0000000000000000e+00
0.0000000000000000e+00 3.6677997215999998e+00 -0.0000000000000000e+00
ITEM: ATOMS id type xs ys zs fx fy fz
1 1 1.36322e-11 1.36322e-11 1.36322e-11 -3.55271e-15 -3.95127e-15 -3.66873e-15
4 1 0.5 1.36322e-11 0.5 3.52669e-15 -3.72684e-15 3.64173e-15
3 1 0.5 0.5 1.36322e-11 3.68629e-15 3.81617e-15 -3.90531e-15
2 1 1.36322e-11 0.5 0.5 -3.9968e-15 3.69865e-15 3.77058e-15
