ITEM: TIMESTEP
0
ITEM: NUMBER OF ATOMS
4
ITEM: BOX BOUNDS xy xz yz pp pp pp
-4.0499988899999999e-02 4.0499988870000001e+00 0.0000000000000000e+00
0.0000000000000000e+00 4.0499988870000001e+00 -4.0499988899999999e-02
0.0000000000000000e+00 4.0497963820000002e+00 0.0000000000000000e+00
ITEM: ATOMS id type xs ys zs fx fy fz
1 1 0 0 0 1.65271e-10 -3.80308e-16 1.71893e-11
4 1 0.5 0 0.5 -1.65271e-10 -7.85416e-16 -1.71892e-11
3 1 0.5 0.5 0 1.65268e-10 4.96575e-16 1.7188e-11
2 1 1.23457e-11 0.5 0.5 -1.65267e-10 6.69156e-16 -1.71882e-11
ITEM: TIMESTEP
2
ITEM: NUMBER OF ATOMS
4
ITEM: BOX BOUNDS xy xz yz pp pp pp
-4.0499988899999999e-02 4.0499988870000001e+00 0.0000000000000000e+00
0.0000000000000000e+00 4.0499988870000001e+00 -4.0499988899999999e-02
0.0000000000000000e+00 4.0497963820000002e+00 0.0000000000000000e+00
ITEM: ATOMS id type xs ys zs fx fy fz
1 1 6.17287e-12 0 0 -9.85323e-16 4.55362e-16 9.85323e-16
4 1 0.5 0 0.5 4.78784e-16 -7.88442e-16 -5.9501e-16
3 1 0.5 0.5 0 -4.72539e-15 -5.72381e-16 -2.01228e-15
2 1 6.17262e-12 0.5 0.5 5.23713e-15 9.05434e-16 1.62023e-15
