
4 atoms
1 atom types
   0.0000000000    4.4760970407 xlo xhi
   0.0000000000    4.4760970407 ylo yhi
   0.0000000000    4.4760970407 zlo zhi
   0.0000000000    0.0000000000    0.0000000000 xy xz yz

Atoms # atomic

     1      1    0.0000000000    0.0000000000    0.0000000000
     2      1    0.0000000000    2.2380485204    2.2380485204
     3      1    2.2380485204    2.2380485204    0.0000000000
     4      1    2.2380485204    0.0000000000    2.2380485204
