ITEM: TIMESTEP
0
ITEM: NUMBER OF ATOMS
4
ITEM: BOX BOUNDS xy xz yz pp pp pp
0.0000000000000000e+00 4.4760970407000000e+00 0.0000000000000000e+00
0.0000000000000000e+00 4.4760970407000000e+00 0.0000000000000000e+00
0.0000000000000000e+00 4.4760970407000000e+00 0.0000000000000000e+00
ITEM: ATOMS id type xs ys zs fx fy fz
1 1 0 0 0 1.95119e-10 1.95118e-10 1.95119e-10
4 1 0.5 0 0.5 -1.95119e-10 1.95119e-10 -1.95118e-10
3 1 0.5 0.5 0 -1.95119e-10 -1.95119e-10 1.95118e-10
2 1 0 0.5 0.5 1.95119e-10 -1.95119e-10 -1.95119e-10
ITEM: TIMESTEP
1
ITEM: NUMBER OF ATOMS
4
ITEM: BOX BOUNDS xy xz yz pp pp pp
0.0000000000000000e+00 4.4760970407000000e+00 0.0000000000000000e+00
0.0000000000000000e+00 4.4760970407000000e+00 0.0000000000000000e+00
0.0000000000000000e+00 4.4760970407000000e+00 0.0000000000000000e+00
ITEM: ATOMS id type xs ys zs fx fy fz
1 1 5.5852e-12 5.5852e-12 5.5852e-12 -9.4369e-16 3.88578e-16 -3.88578e-16
4 1 0.5 5.5852e-12 0.5 7.77156e-16 -1.80411e-16 -8.32667e-17
3 1 0.5 0.5 5.58519e-12 1.13798e-15 2.04972e-17 4.16334e-16
2 1 5.5852e-12 0.5 0.5 -9.99201e-16 -2.22045e-16 -2.77556e-17
