ITEM: TIMESTEP
0
ITEM: NUMBER OF ATOMS
4
ITEM: BOX BOUNDS xy xz yz pp pp pp
0.0000000000000000e+00 4.0499988870000001e+00 0.0000000000000000e+00
-4.0499988899999999e-02 4.0499988870000001e+00 0.0000000000000000e+00
0.0000000000000000e+00 4.0497963820000002e+00 -4.0499988899999999e-02
ITEM: ATOMS id type xs ys zs fx fy fz
1 1 0 0 0 0 1.65271e-10 1.71895e-11
2 1 0 0.5 0.5 0 -1.65272e-10 -1.71898e-11
3 1 0.5 0.5 0 0 1.65267e-10 1.71883e-11
4 1 0.5 1.23457e-11 0.5 0 -1.65266e-10 -1.7188e-11
ITEM: TIMESTEP
2
ITEM: NUMBER OF ATOMS
4
ITEM: BOX BOUNDS xy xz yz pp pp pp
0.0000000000000000e+00 4.0499988870000001e+00 0.0000000000000000e+00
-4.0499988899999999e-02 4.0499988870000001e+00 0.0000000000000000e+00
0.0000000000000000e+00 4.0497963820000002e+00 -4.0499988899999999e-02
ITEM: ATOMS id type xs ys zs fx fy fz
1 1 2.51168e-19 6.17285e-12 0 9.21369e-17 -2.46201e-15 4.79087e-15
2 1 0 0.5 0.5 1.02152e-16 5.05238e-17 -2.29851e-15
3 1 0.5 0.5 0 -2.77556e-17 -1.06902e-16 2.59124e-15
4 1 0.5 6.17262e-12 0.5 -1.66533e-16 2.51925e-15 -5.08404e-15
