<?xml version="1.0" encoding="ISO-8859-1"?>
<modeling>
 <generator>
  <i name="program" type="string">vasp </i>
  <i name="version" type="string">6.4.2  </i>
  <i name="subversion" type="string">20Jul23 (build Apr 22 2024 22:35:45) complex                          parallel </i>
  <i name="platform" type="string">LinuxGNU </i>
  <i name="date" type="string">2024 05 26 </i>
  <i name="time" type="string">17:02:19 </i>
 </generator>
 <incar>
  <i type="string" name="SYSTEM">Al fcc relaxation</i>
  <i type="string" name="PREC">Accurate</i>
  <i type="string" name="ALGO">Fast</i>
  <i type="int" name="NELM">    60</i>
  <i type="int" name="NELMIN">     4</i>
  <i type="int" name="IBRION">     2</i>
  <i name="EDIFF">      0.00000100</i>
  <i type="int" name="NSW">   100</i>
  <i type="int" name="ISIF">     2</i>
  <i name="ENCUT">    400.00000000</i>
  <i type="string" name="LREAL">Auto</i>
  <i type="int" name="ISMEAR">     1</i>
  <i name="SIGMA">      0.20000000</i>
  <i name="KSPACING">      0.08000000</i>
  <i type="logical" name="LWAVE"> F  </i>
  <i type="logical" name="LCHARG"> F  </i>
 </incar>
 <primitive_cell>
  <structure name="primitive_cell" >
   <crystal>
    <varray name="basis" >
     <v>      -0.04038930       2.01946485       2.01906091 </v>
     <v>       0.04038930       2.01946485      -2.01906091 </v>
     <v>      -2.01946485      -2.01946485       0.00000000 </v>
    </varray>
    <i name="volume">     16.46842296 </i>
    <varray name="rec_basis" >
     <v>      -0.24759035       0.24759035       0.24268708 </v>
     <v>      -0.24759035       0.24759035      -0.25259268 </v>
     <v>      -0.49518069      -0.00000000      -0.00990560 </v>
    </varray>
   </crystal>
   <varray name="positions" >
    <v>       0.00000000       0.00000000       0.00000000 </v>
   </varray>
  </structure>
  <varray name="primitive_index" >
   <v type="int" >        1 </v>
  </varray>
 </primitive_cell>
 <kpoints>
  <generation param="Monkhorst-Pack">
   <v type="int" name="divisions">      20       20       20 </v>
   <v name="usershift">      0.00000000       0.00000000       0.00000000 </v>
   <v name="genvec1">      0.05000000       0.00000000       0.00000000 </v>
   <v name="genvec2">      0.00000000       0.05000000      -0.00000000 </v>
   <v name="genvec3">      0.00000000       0.00000000       0.05000000 </v>
   <v name="shift">      0.50000000       0.50000000       0.50000000 </v>
  </generation>
  <varray name="kpointlist" >
   <v>       0.02500000       0.02500000       0.02500000 </v>
   <v>       0.07500000       0.02500000       0.02500000 </v>
   <v>       0.12500000       0.02500000       0.02500000 </v>
   <v>       0.17500000       0.02500000       0.02500000 </v>
   <v>       0.22500000       0.02500000       0.02500000 </v>
   <v>       0.27500000       0.02500000       0.02500000 </v>
   <v>       0.32500000       0.02500000       0.02500000 </v>
   <v>       0.37500000       0.02500000       0.02500000 </v>
   <v>       0.42500000       0.02500000       0.02500000 </v>
   <v>       0.47500000       0.02500000       0.02500000 </v>
   <v>      -0.47500000       0.02500000       0.02500000 </v>
   <v>      -0.42500000       0.02500000       0.02500000 </v>
   <v>      -0.37500000       0.02500000       0.02500000 </v>
   <v>      -0.32500000       0.02500000       0.02500000 </v>
   <v>      -0.27500000       0.02500000       0.02500000 </v>
   <v>      -0.22500000       0.02500000       0.02500000 </v>
   <v>      -0.17500000       0.02500000       0.02500000 </v>
   <v>      -0.12500000       0.02500000       0.02500000 </v>
   <v>      -0.07500000       0.02500000       0.02500000 </v>
   <v>      -0.02500000       0.02500000       0.02500000 </v>
   <v>       0.02500000       0.07500000       0.02500000 </v>
   <v>       0.07500000       0.07500000       0.02500000 </v>
   <v>       0.12500000       0.07500000       0.02500000 </v>
   <v>       0.17500000       0.07500000       0.02500000 </v>
   <v>       0.22500000       0.07500000       0.02500000 </v>
   <v>       0.27500000       0.07500000       0.02500000 </v>
   <v>       0.32500000       0.07500000       0.02500000 </v>
   <v>       0.37500000       0.07500000       0.02500000 </v>
   <v>       0.42500000       0.07500000       0.02500000 </v>
   <v>       0.47500000       0.07500000       0.02500000 </v>
   <v>      -0.47500000       0.07500000       0.02500000 </v>
   <v>      -0.42500000       0.07500000       0.02500000 </v>
   <v>      -0.37500000       0.07500000       0.02500000 </v>
   <v>      -0.32500000       0.07500000       0.02500000 </v>
   <v>      -0.27500000       0.07500000       0.02500000 </v>
   <v>      -0.22500000       0.07500000       0.02500000 </v>
   <v>      -0.17500000       0.07500000       0.02500000 </v>
   <v>      -0.12500000       0.07500000       0.02500000 </v>
   <v>      -0.07500000       0.07500000       0.02500000 </v>
   <v>      -0.02500000       0.07500000       0.02500000 </v>
   <v>       0.02500000       0.12500000       0.02500000 </v>
   <v>       0.07500000       0.12500000       0.02500000 </v>
   <v>       0.12500000       0.12500000       0.02500000 </v>
   <v>       0.17500000       0.12500000       0.02500000 </v>
   <v>       0.22500000       0.12500000       0.02500000 </v>
   <v>       0.27500000       0.12500000       0.02500000 </v>
   <v>       0.32500000       0.12500000       0.02500000 </v>
   <v>       0.37500000       0.12500000       0.02500000 </v>
   <v>       0.42500000       0.12500000       0.02500000 </v>
   <v>       0.47500000       0.12500000       0.02500000 </v>
   <v>      -0.47500000       0.12500000       0.02500000 </v>
   <v>      -0.42500000       0.12500000       0.02500000 </v>
   <v>      -0.37500000       0.12500000       0.02500000 </v>
   <v>      -0.32500000       0.12500000       0.02500000 </v>
   <v>      -0.27500000       0.12500000       0.02500000 </v>
   <v>      -0.22500000       0.12500000       0.02500000 </v>
   <v>      -0.17500000       0.12500000       0.02500000 </v>
   <v>      -0.12500000       0.12500000       0.02500000 </v>
   <v>      -0.07500000       0.12500000       0.02500000 </v>
   <v>      -0.02500000       0.12500000       0.02500000 </v>
   <v>       0.02500000       0.17500000       0.02500000 </v>
   <v>       0.07500000       0.17500000       0.02500000 </v>
   <v>       0.12500000       0.17500000       0.02500000 </v>
   <v>       0.17500000       0.17500000       0.02500000 </v>
   <v>       0.22500000       0.17500000       0.02500000 </v>
   <v>       0.27500000       0.17500000       0.02500000 </v>
   <v>       0.32500000       0.17500000       0.02500000 </v>
   <v>       0.37500000       0.17500000       0.02500000 </v>
   <v>       0.42500000       0.17500000       0.02500000 </v>
   <v>       0.47500000       0.17500000       0.02500000 </v>
   <v>      -0.47500000       0.17500000       0.02500000 </v>
   <v>      -0.42500000       0.17500000       0.02500000 </v>
   <v>      -0.37500000       0.17500000       0.02500000 </v>
   <v>      -0.32500000       0.17500000       0.02500000 </v>
   <v>      -0.27500000       0.17500000       0.02500000 </v>
   <v>      -0.22500000       0.17500000       0.02500000 </v>
   <v>      -0.17500000       0.17500000       0.02500000 </v>
   <v>      -0.12500000       0.17500000       0.02500000 </v>
   <v>      -0.07500000       0.17500000       0.02500000 </v>
   <v>      -0.02500000       0.17500000       0.02500000 </v>
   <v>       0.02500000       0.22500000       0.02500000 </v>
   <v>       0.07500000       0.22500000       0.02500000 </v>
   <v>       0.12500000       0.22500000       0.02500000 </v>
   <v>       0.17500000       0.22500000       0.02500000 </v>
   <v>       0.22500000       0.22500000       0.02500000 </v>
   <v>       0.27500000       0.22500000       0.02500000 </v>
   <v>       0.32500000       0.22500000       0.02500000 </v>
   <v>       0.37500000       0.22500000       0.02500000 </v>
   <v>       0.42500000       0.22500000       0.02500000 </v>
   <v>       0.47500000       0.22500000       0.02500000 </v>
   <v>      -0.47500000       0.22500000       0.02500000 </v>
   <v>      -0.42500000       0.22500000       0.02500000 </v>
   <v>      -0.37500000       0.22500000       0.02500000 </v>
   <v>      -0.32500000       0.22500000       0.02500000 </v>
   <v>      -0.27500000       0.22500000       0.02500000 </v>
   <v>      -0.22500000       0.22500000       0.02500000 </v>
   <v>      -0.17500000       0.22500000       0.02500000 </v>
   <v>      -0.12500000       0.22500000       0.02500000 </v>
   <v>      -0.07500000       0.22500000       0.02500000 </v>
   <v>      -0.02500000       0.22500000       0.02500000 </v>
   <v>       0.02500000       0.27500000       0.02500000 </v>
   <v>       0.07500000       0.27500000       0.02500000 </v>
   <v>       0.12500000       0.27500000       0.02500000 </v>
   <v>       0.17500000       0.27500000       0.02500000 </v>
   <v>       0.22500000       0.27500000       0.02500000 </v>
   <v>       0.27500000       0.27500000       0.02500000 </v>
   <v>       0.32500000       0.27500000       0.02500000 </v>
   <v>       0.37500000       0.27500000       0.02500000 </v>
   <v>       0.42500000       0.27500000       0.02500000 </v>
   <v>       0.47500000       0.27500000       0.02500000 </v>
   <v>      -0.47500000       0.27500000       0.02500000 </v>
   <v>      -0.42500000       0.27500000       0.02500000 </v>
   <v>      -0.37500000       0.27500000       0.02500000 </v>
   <v>      -0.32500000       0.27500000       0.02500000 </v>
   <v>      -0.27500000       0.27500000       0.02500000 </v>
   <v>      -0.22500000       0.27500000       0.02500000 </v>
   <v>      -0.17500000       0.27500000       0.02500000 </v>
   <v>      -0.12500000       0.27500000       0.02500000 </v>
   <v>      -0.07500000       0.27500000       0.02500000 </v>
   <v>      -0.02500000       0.27500000       0.02500000 </v>
   <v>       0.02500000       0.32500000       0.02500000 </v>
   <v>       0.07500000       0.32500000       0.02500000 </v>
   <v>       0.12500000       0.32500000       0.02500000 </v>
   <v>       0.17500000       0.32500000       0.02500000 </v>
   <v>       0.22500000       0.32500000       0.02500000 </v>
   <v>       0.27500000       0.32500000       0.02500000 </v>
   <v>       0.32500000       0.32500000       0.02500000 </v>
   <v>       0.37500000       0.32500000       0.02500000 </v>
   <v>       0.42500000       0.32500000       0.02500000 </v>
   <v>       0.47500000       0.32500000       0.02500000 </v>
   <v>      -0.47500000       0.32500000       0.02500000 </v>
   <v>      -0.42500000       0.32500000       0.02500000 </v>
   <v>      -0.37500000       0.32500000       0.02500000 </v>
   <v>      -0.32500000       0.32500000       0.02500000 </v>
   <v>      -0.27500000       0.32500000       0.02500000 </v>
   <v>      -0.22500000       0.32500000       0.02500000 </v>
   <v>      -0.17500000       0.32500000       0.02500000 </v>
   <v>      -0.12500000       0.32500000       0.02500000 </v>
   <v>      -0.07500000       0.32500000       0.02500000 </v>
   <v>      -0.02500000       0.32500000       0.02500000 </v>
   <v>       0.02500000       0.37500000       0.02500000 </v>
   <v>       0.07500000       0.37500000       0.02500000 </v>
   <v>       0.12500000       0.37500000       0.02500000 </v>
   <v>       0.17500000       0.37500000       0.02500000 </v>
   <v>       0.22500000       0.37500000       0.02500000 </v>
   <v>       0.27500000       0.37500000       0.02500000 </v>
   <v>       0.32500000       0.37500000       0.02500000 </v>
   <v>       0.37500000       0.37500000       0.02500000 </v>
   <v>       0.42500000       0.37500000       0.02500000 </v>
   <v>       0.47500000       0.37500000       0.02500000 </v>
   <v>      -0.47500000       0.37500000       0.02500000 </v>
   <v>      -0.42500000       0.37500000       0.02500000 </v>
   <v>      -0.37500000       0.37500000       0.02500000 </v>
   <v>      -0.32500000       0.37500000       0.02500000 </v>
   <v>      -0.27500000       0.37500000       0.02500000 </v>
   <v>      -0.22500000       0.37500000       0.02500000 </v>
   <v>      -0.17500000       0.37500000       0.02500000 </v>
   <v>      -0.12500000       0.37500000       0.02500000 </v>
   <v>      -0.07500000       0.37500000       0.02500000 </v>
   <v>      -0.02500000       0.37500000       0.02500000 </v>
   <v>       0.02500000       0.42500000       0.02500000 </v>
   <v>       0.07500000       0.42500000       0.02500000 </v>
   <v>       0.12500000       0.42500000       0.02500000 </v>
   <v>       0.17500000       0.42500000       0.02500000 </v>
   <v>       0.22500000       0.42500000       0.02500000 </v>
   <v>       0.27500000       0.42500000       0.02500000 </v>
   <v>       0.32500000       0.42500000       0.02500000 </v>
   <v>       0.37500000       0.42500000       0.02500000 </v>
   <v>       0.42500000       0.42500000       0.02500000 </v>
   <v>       0.47500000       0.42500000       0.02500000 </v>
   <v>      -0.47500000       0.42500000       0.02500000 </v>
   <v>      -0.42500000       0.42500000       0.02500000 </v>
   <v>      -0.37500000       0.42500000       0.02500000 </v>
   <v>      -0.32500000       0.42500000       0.02500000 </v>
   <v>      -0.27500000       0.42500000       0.02500000 </v>
   <v>      -0.22500000       0.42500000       0.02500000 </v>
   <v>      -0.17500000       0.42500000       0.02500000 </v>
   <v>      -0.12500000       0.42500000       0.02500000 </v>
   <v>      -0.07500000       0.42500000       0.02500000 </v>
   <v>      -0.02500000       0.42500000       0.02500000 </v>
   <v>       0.02500000       0.47500000       0.02500000 </v>
   <v>       0.07500000       0.47500000       0.02500000 </v>
   <v>       0.12500000       0.47500000       0.02500000 </v>
   <v>       0.17500000       0.47500000       0.02500000 </v>
   <v>       0.22500000       0.47500000       0.02500000 </v>
   <v>       0.27500000       0.47500000       0.02500000 </v>
   <v>       0.32500000       0.47500000       0.02500000 </v>
   <v>       0.37500000       0.47500000       0.02500000 </v>
   <v>       0.42500000       0.47500000       0.02500000 </v>
   <v>       0.47500000       0.47500000       0.02500000 </v>
   <v>      -0.47500000       0.47500000       0.02500000 </v>
   <v>      -0.42500000       0.47500000       0.02500000 </v>
   <v>      -0.37500000       0.47500000       0.02500000 </v>
   <v>      -0.32500000       0.47500000       0.02500000 </v>
   <v>      -0.27500000       0.47500000       0.02500000 </v>
   <v>      -0.22500000       0.47500000       0.02500000 </v>
   <v>      -0.17500000       0.47500000       0.02500000 </v>
   <v>      -0.12500000       0.47500000       0.02500000 </v>
   <v>      -0.07500000       0.47500000       0.02500000 </v>
   <v>      -0.02500000       0.47500000       0.02500000 </v>
   <v>       0.07500000       0.02500000       0.07500000 </v>
   <v>       0.12500000       0.02500000       0.07500000 </v>
   <v>       0.17500000       0.02500000       0.07500000 </v>
   <v>       0.22500000       0.02500000       0.07500000 </v>
   <v>       0.27500000       0.02500000       0.07500000 </v>
   <v>       0.32500000       0.02500000       0.07500000 </v>
   <v>       0.37500000       0.02500000       0.07500000 </v>
   <v>       0.42500000       0.02500000       0.07500000 </v>
   <v>       0.47500000       0.02500000       0.07500000 </v>
   <v>      -0.47500000       0.02500000       0.07500000 </v>
   <v>      -0.42500000       0.02500000       0.07500000 </v>
   <v>      -0.37500000       0.02500000       0.07500000 </v>
   <v>      -0.32500000       0.02500000       0.07500000 </v>
   <v>      -0.27500000       0.02500000       0.07500000 </v>
   <v>      -0.22500000       0.02500000       0.07500000 </v>
   <v>      -0.17500000       0.02500000       0.07500000 </v>
   <v>      -0.12500000       0.02500000       0.07500000 </v>
   <v>      -0.07500000       0.02500000       0.07500000 </v>
   <v>       0.07500000       0.07500000       0.07500000 </v>
   <v>       0.12500000       0.07500000       0.07500000 </v>
   <v>       0.17500000       0.07500000       0.07500000 </v>
   <v>       0.22500000       0.07500000       0.07500000 </v>
   <v>       0.27500000       0.07500000       0.07500000 </v>
   <v>       0.32500000       0.07500000       0.07500000 </v>
   <v>       0.37500000       0.07500000       0.07500000 </v>
   <v>       0.42500000       0.07500000       0.07500000 </v>
   <v>       0.47500000       0.07500000       0.07500000 </v>
   <v>      -0.47500000       0.07500000       0.07500000 </v>
   <v>      -0.42500000       0.07500000       0.07500000 </v>
   <v>      -0.37500000       0.07500000       0.07500000 </v>
   <v>      -0.32500000       0.07500000       0.07500000 </v>
   <v>      -0.27500000       0.07500000       0.07500000 </v>
   <v>      -0.22500000       0.07500000       0.07500000 </v>
   <v>      -0.17500000       0.07500000       0.07500000 </v>
   <v>      -0.12500000       0.07500000       0.07500000 </v>
   <v>      -0.07500000       0.07500000       0.07500000 </v>
   <v>       0.07500000       0.12500000       0.07500000 </v>
   <v>       0.12500000       0.12500000       0.07500000 </v>
   <v>       0.17500000       0.12500000       0.07500000 </v>
   <v>       0.22500000       0.12500000       0.07500000 </v>
   <v>       0.27500000       0.12500000       0.07500000 </v>
   <v>       0.32500000       0.12500000       0.07500000 </v>
   <v>       0.37500000       0.12500000       0.07500000 </v>
   <v>       0.42500000       0.12500000       0.07500000 </v>
   <v>       0.47500000       0.12500000       0.07500000 </v>
   <v>      -0.47500000       0.12500000       0.07500000 </v>
   <v>      -0.42500000       0.12500000       0.07500000 </v>
   <v>      -0.37500000       0.12500000       0.07500000 </v>
   <v>      -0.32500000       0.12500000       0.07500000 </v>
   <v>      -0.27500000       0.12500000       0.07500000 </v>
   <v>      -0.22500000       0.12500000       0.07500000 </v>
   <v>      -0.17500000       0.12500000       0.07500000 </v>
   <v>      -0.12500000       0.12500000       0.07500000 </v>
   <v>      -0.07500000       0.12500000       0.07500000 </v>
   <v>       0.07500000       0.17500000       0.07500000 </v>
   <v>       0.12500000       0.17500000       0.07500000 </v>
   <v>       0.17500000       0.17500000       0.07500000 </v>
   <v>       0.22500000       0.17500000       0.07500000 </v>
   <v>       0.27500000       0.17500000       0.07500000 </v>
   <v>       0.32500000       0.17500000       0.07500000 </v>
   <v>       0.37500000       0.17500000       0.07500000 </v>
   <v>       0.42500000       0.17500000       0.07500000 </v>
   <v>       0.47500000       0.17500000       0.07500000 </v>
   <v>      -0.47500000       0.17500000       0.07500000 </v>
   <v>      -0.42500000       0.17500000       0.07500000 </v>
   <v>      -0.37500000       0.17500000       0.07500000 </v>
   <v>      -0.32500000       0.17500000       0.07500000 </v>
   <v>      -0.27500000       0.17500000       0.07500000 </v>
   <v>      -0.22500000       0.17500000       0.07500000 </v>
   <v>      -0.17500000       0.17500000       0.07500000 </v>
   <v>      -0.12500000       0.17500000       0.07500000 </v>
   <v>      -0.07500000       0.17500000       0.07500000 </v>
   <v>       0.07500000       0.22500000       0.07500000 </v>
   <v>       0.12500000       0.22500000       0.07500000 </v>
   <v>       0.17500000       0.22500000       0.07500000 </v>
   <v>       0.22500000       0.22500000       0.07500000 </v>
   <v>       0.27500000       0.22500000       0.07500000 </v>
   <v>       0.32500000       0.22500000       0.07500000 </v>
   <v>       0.37500000       0.22500000       0.07500000 </v>
   <v>       0.42500000       0.22500000       0.07500000 </v>
   <v>       0.47500000       0.22500000       0.07500000 </v>
   <v>      -0.47500000       0.22500000       0.07500000 </v>
   <v>      -0.42500000       0.22500000       0.07500000 </v>
   <v>      -0.37500000       0.22500000       0.07500000 </v>
   <v>      -0.32500000       0.22500000       0.07500000 </v>
   <v>      -0.27500000       0.22500000       0.07500000 </v>
   <v>      -0.22500000       0.22500000       0.07500000 </v>
   <v>      -0.17500000       0.22500000       0.07500000 </v>
   <v>      -0.12500000       0.22500000       0.07500000 </v>
   <v>      -0.07500000       0.22500000       0.07500000 </v>
   <v>       0.07500000       0.27500000       0.07500000 </v>
   <v>       0.12500000       0.27500000       0.07500000 </v>
   <v>       0.17500000       0.27500000       0.07500000 </v>
   <v>       0.22500000       0.27500000       0.07500000 </v>
   <v>       0.27500000       0.27500000       0.07500000 </v>
   <v>       0.32500000       0.27500000       0.07500000 </v>
   <v>       0.37500000       0.27500000       0.07500000 </v>
   <v>       0.42500000       0.27500000       0.07500000 </v>
   <v>       0.47500000       0.27500000       0.07500000 </v>
   <v>      -0.47500000       0.27500000       0.07500000 </v>
   <v>      -0.42500000       0.27500000       0.07500000 </v>
   <v>      -0.37500000       0.27500000       0.07500000 </v>
   <v>      -0.32500000       0.27500000       0.07500000 </v>
   <v>      -0.27500000       0.27500000       0.07500000 </v>
   <v>      -0.22500000       0.27500000       0.07500000 </v>
   <v>      -0.17500000       0.27500000       0.07500000 </v>
   <v>      -0.12500000       0.27500000       0.07500000 </v>
   <v>      -0.07500000       0.27500000       0.07500000 </v>
   <v>       0.07500000       0.32500000       0.07500000 </v>
   <v>       0.12500000       0.32500000       0.07500000 </v>
   <v>       0.17500000       0.32500000       0.07500000 </v>
   <v>       0.22500000       0.32500000       0.07500000 </v>
   <v>       0.27500000       0.32500000       0.07500000 </v>
   <v>       0.32500000       0.32500000       0.07500000 </v>
   <v>       0.37500000       0.32500000       0.07500000 </v>
   <v>       0.42500000       0.32500000       0.07500000 </v>
   <v>       0.47500000       0.32500000       0.07500000 </v>
   <v>      -0.47500000       0.32500000       0.07500000 </v>
   <v>      -0.42500000       0.32500000       0.07500000 </v>
   <v>      -0.37500000       0.32500000       0.07500000 </v>
   <v>      -0.32500000       0.32500000       0.07500000 </v>
   <v>      -0.27500000       0.32500000       0.07500000 </v>
   <v>      -0.22500000       0.32500000       0.07500000 </v>
   <v>      -0.17500000       0.32500000       0.07500000 </v>
   <v>      -0.12500000       0.32500000       0.07500000 </v>
   <v>      -0.07500000       0.32500000       0.07500000 </v>
   <v>       0.07500000       0.37500000       0.07500000 </v>
   <v>       0.12500000       0.37500000       0.07500000 </v>
   <v>       0.17500000       0.37500000       0.07500000 </v>
   <v>       0.22500000       0.37500000       0.07500000 </v>
   <v>       0.27500000       0.37500000       0.07500000 </v>
   <v>       0.32500000       0.37500000       0.07500000 </v>
   <v>       0.37500000       0.37500000       0.07500000 </v>
   <v>       0.42500000       0.37500000       0.07500000 </v>
   <v>       0.47500000       0.37500000       0.07500000 </v>
   <v>      -0.47500000       0.37500000       0.07500000 </v>
   <v>      -0.42500000       0.37500000       0.07500000 </v>
   <v>      -0.37500000       0.37500000       0.07500000 </v>
   <v>      -0.32500000       0.37500000       0.07500000 </v>
   <v>      -0.27500000       0.37500000       0.07500000 </v>
   <v>      -0.22500000       0.37500000       0.07500000 </v>
   <v>      -0.17500000       0.37500000       0.07500000 </v>
   <v>      -0.12500000       0.37500000       0.07500000 </v>
   <v>      -0.07500000       0.37500000       0.07500000 </v>
   <v>       0.07500000       0.42500000       0.07500000 </v>
   <v>       0.12500000       0.42500000       0.07500000 </v>
   <v>       0.17500000       0.42500000       0.07500000 </v>
   <v>       0.22500000       0.42500000       0.07500000 </v>
   <v>       0.27500000       0.42500000       0.07500000 </v>
   <v>       0.32500000       0.42500000       0.07500000 </v>
   <v>       0.37500000       0.42500000       0.07500000 </v>
   <v>       0.42500000       0.42500000       0.07500000 </v>
   <v>       0.47500000       0.42500000       0.07500000 </v>
   <v>      -0.47500000       0.42500000       0.07500000 </v>
   <v>      -0.42500000       0.42500000       0.07500000 </v>
   <v>      -0.37500000       0.42500000       0.07500000 </v>
   <v>      -0.32500000       0.42500000       0.07500000 </v>
   <v>      -0.27500000       0.42500000       0.07500000 </v>
   <v>      -0.22500000       0.42500000       0.07500000 </v>
   <v>      -0.17500000       0.42500000       0.07500000 </v>
   <v>      -0.12500000       0.42500000       0.07500000 </v>
   <v>      -0.07500000       0.42500000       0.07500000 </v>
   <v>       0.07500000       0.47500000       0.07500000 </v>
   <v>       0.12500000       0.47500000       0.07500000 </v>
   <v>       0.17500000       0.47500000       0.07500000 </v>
   <v>       0.22500000       0.47500000       0.07500000 </v>
   <v>       0.27500000       0.47500000       0.07500000 </v>
   <v>       0.32500000       0.47500000       0.07500000 </v>
   <v>       0.37500000       0.47500000       0.07500000 </v>
   <v>       0.42500000       0.47500000       0.07500000 </v>
   <v>       0.47500000       0.47500000       0.07500000 </v>
   <v>      -0.47500000       0.47500000       0.07500000 </v>
   <v>      -0.42500000       0.47500000       0.07500000 </v>
   <v>      -0.37500000       0.47500000       0.07500000 </v>
   <v>      -0.32500000       0.47500000       0.07500000 </v>
   <v>      -0.27500000       0.47500000       0.07500000 </v>
   <v>      -0.22500000       0.47500000       0.07500000 </v>
   <v>      -0.17500000       0.47500000       0.07500000 </v>
   <v>      -0.12500000       0.47500000       0.07500000 </v>
   <v>      -0.07500000       0.47500000       0.07500000 </v>
   <v>       0.12500000       0.02500000       0.12500000 </v>
   <v>       0.17500000       0.02500000       0.12500000 </v>
   <v>       0.22500000       0.02500000       0.12500000 </v>
   <v>       0.27500000       0.02500000       0.12500000 </v>
   <v>       0.32500000       0.02500000       0.12500000 </v>
   <v>       0.37500000       0.02500000       0.12500000 </v>
   <v>       0.42500000       0.02500000       0.12500000 </v>
   <v>       0.47500000       0.02500000       0.12500000 </v>
   <v>      -0.47500000       0.02500000       0.12500000 </v>
   <v>      -0.42500000       0.02500000       0.12500000 </v>
   <v>      -0.37500000       0.02500000       0.12500000 </v>
   <v>      -0.32500000       0.02500000       0.12500000 </v>
   <v>      -0.27500000       0.02500000       0.12500000 </v>
   <v>      -0.22500000       0.02500000       0.12500000 </v>
   <v>      -0.17500000       0.02500000       0.12500000 </v>
   <v>      -0.12500000       0.02500000       0.12500000 </v>
   <v>       0.12500000       0.07500000       0.12500000 </v>
   <v>       0.17500000       0.07500000       0.12500000 </v>
   <v>       0.22500000       0.07500000       0.12500000 </v>
   <v>       0.27500000       0.07500000       0.12500000 </v>
   <v>       0.32500000       0.07500000       0.12500000 </v>
   <v>       0.37500000       0.07500000       0.12500000 </v>
   <v>       0.42500000       0.07500000       0.12500000 </v>
   <v>       0.47500000       0.07500000       0.12500000 </v>
   <v>      -0.47500000       0.07500000       0.12500000 </v>
   <v>      -0.42500000       0.07500000       0.12500000 </v>
   <v>      -0.37500000       0.07500000       0.12500000 </v>
   <v>      -0.32500000       0.07500000       0.12500000 </v>
   <v>      -0.27500000       0.07500000       0.12500000 </v>
   <v>      -0.22500000       0.07500000       0.12500000 </v>
   <v>      -0.17500000       0.07500000       0.12500000 </v>
   <v>      -0.12500000       0.07500000       0.12500000 </v>
   <v>       0.12500000       0.12500000       0.12500000 </v>
   <v>       0.17500000       0.12500000       0.12500000 </v>
   <v>       0.22500000       0.12500000       0.12500000 </v>
   <v>       0.27500000       0.12500000       0.12500000 </v>
   <v>       0.32500000       0.12500000       0.12500000 </v>
   <v>       0.37500000       0.12500000       0.12500000 </v>
   <v>       0.42500000       0.12500000       0.12500000 </v>
   <v>       0.47500000       0.12500000       0.12500000 </v>
   <v>      -0.47500000       0.12500000       0.12500000 </v>
   <v>      -0.42500000       0.12500000       0.12500000 </v>
   <v>      -0.37500000       0.12500000       0.12500000 </v>
   <v>      -0.32500000       0.12500000       0.12500000 </v>
   <v>      -0.27500000       0.12500000       0.12500000 </v>
   <v>      -0.22500000       0.12500000       0.12500000 </v>
   <v>      -0.17500000       0.12500000       0.12500000 </v>
   <v>      -0.12500000       0.12500000       0.12500000 </v>
   <v>       0.12500000       0.17500000       0.12500000 </v>
   <v>       0.17500000       0.17500000       0.12500000 </v>
   <v>       0.22500000       0.17500000       0.12500000 </v>
   <v>       0.27500000       0.17500000       0.12500000 </v>
   <v>       0.32500000       0.17500000       0.12500000 </v>
   <v>       0.37500000       0.17500000       0.12500000 </v>
   <v>       0.42500000       0.17500000       0.12500000 </v>
   <v>       0.47500000       0.17500000       0.12500000 </v>
   <v>      -0.47500000       0.17500000       0.12500000 </v>
   <v>      -0.42500000       0.17500000       0.12500000 </v>
   <v>      -0.37500000       0.17500000       0.12500000 </v>
   <v>      -0.32500000       0.17500000       0.12500000 </v>
   <v>      -0.27500000       0.17500000       0.12500000 </v>
   <v>      -0.22500000       0.17500000       0.12500000 </v>
   <v>      -0.17500000       0.17500000       0.12500000 </v>
   <v>      -0.12500000       0.17500000       0.12500000 </v>
   <v>       0.12500000       0.22500000       0.12500000 </v>
   <v>       0.17500000       0.22500000       0.12500000 </v>
   <v>       0.22500000       0.22500000       0.12500000 </v>
   <v>       0.27500000       0.22500000       0.12500000 </v>
   <v>       0.32500000       0.22500000       0.12500000 </v>
   <v>       0.37500000       0.22500000       0.12500000 </v>
   <v>       0.42500000       0.22500000       0.12500000 </v>
   <v>       0.47500000       0.22500000       0.12500000 </v>
   <v>      -0.47500000       0.22500000       0.12500000 </v>
   <v>      -0.42500000       0.22500000       0.12500000 </v>
   <v>      -0.37500000       0.22500000       0.12500000 </v>
   <v>      -0.32500000       0.22500000       0.12500000 </v>
   <v>      -0.27500000       0.22500000       0.12500000 </v>
   <v>      -0.22500000       0.22500000       0.12500000 </v>
   <v>      -0.17500000       0.22500000       0.12500000 </v>
   <v>      -0.12500000       0.22500000       0.12500000 </v>
   <v>       0.12500000       0.27500000       0.12500000 </v>
   <v>       0.17500000       0.27500000       0.12500000 </v>
   <v>       0.22500000       0.27500000       0.12500000 </v>
   <v>       0.27500000       0.27500000       0.12500000 </v>
   <v>       0.32500000       0.27500000       0.12500000 </v>
   <v>       0.37500000       0.27500000       0.12500000 </v>
   <v>       0.42500000       0.27500000       0.12500000 </v>
   <v>       0.47500000       0.27500000       0.12500000 </v>
   <v>      -0.47500000       0.27500000       0.12500000 </v>
   <v>      -0.42500000       0.27500000       0.12500000 </v>
   <v>      -0.37500000       0.27500000       0.12500000 </v>
   <v>      -0.32500000       0.27500000       0.12500000 </v>
   <v>      -0.27500000       0.27500000       0.12500000 </v>
   <v>      -0.22500000       0.27500000       0.12500000 </v>
   <v>      -0.17500000       0.27500000       0.12500000 </v>
   <v>      -0.12500000       0.27500000       0.12500000 </v>
   <v>       0.12500000       0.32500000       0.12500000 </v>
   <v>       0.17500000       0.32500000       0.12500000 </v>
   <v>       0.22500000       0.32500000       0.12500000 </v>
   <v>       0.27500000       0.32500000       0.12500000 </v>
   <v>       0.32500000       0.32500000       0.12500000 </v>
   <v>       0.37500000       0.32500000       0.12500000 </v>
   <v>       0.42500000       0.32500000       0.12500000 </v>
   <v>       0.47500000       0.32500000       0.12500000 </v>
   <v>      -0.47500000       0.32500000       0.12500000 </v>
   <v>      -0.42500000       0.32500000       0.12500000 </v>
   <v>      -0.37500000       0.32500000       0.12500000 </v>
   <v>      -0.32500000       0.32500000       0.12500000 </v>
   <v>      -0.27500000       0.32500000       0.12500000 </v>
   <v>      -0.22500000       0.32500000       0.12500000 </v>
   <v>      -0.17500000       0.32500000       0.12500000 </v>
   <v>      -0.12500000       0.32500000       0.12500000 </v>
   <v>       0.12500000       0.37500000       0.12500000 </v>
   <v>       0.17500000       0.37500000       0.12500000 </v>
   <v>       0.22500000       0.37500000       0.12500000 </v>
   <v>       0.27500000       0.37500000       0.12500000 </v>
   <v>       0.32500000       0.37500000       0.12500000 </v>
   <v>       0.37500000       0.37500000       0.12500000 </v>
   <v>       0.42500000       0.37500000       0.12500000 </v>
   <v>       0.47500000       0.37500000       0.12500000 </v>
   <v>      -0.47500000       0.37500000       0.12500000 </v>
   <v>      -0.42500000       0.37500000       0.12500000 </v>
   <v>      -0.37500000       0.37500000       0.12500000 </v>
   <v>      -0.32500000       0.37500000       0.12500000 </v>
   <v>      -0.27500000       0.37500000       0.12500000 </v>
   <v>      -0.22500000       0.37500000       0.12500000 </v>
   <v>      -0.17500000       0.37500000       0.12500000 </v>
   <v>      -0.12500000       0.37500000       0.12500000 </v>
   <v>       0.12500000       0.42500000       0.12500000 </v>
   <v>       0.17500000       0.42500000       0.12500000 </v>
   <v>       0.22500000       0.42500000       0.12500000 </v>
   <v>       0.27500000       0.42500000       0.12500000 </v>
   <v>       0.32500000       0.42500000       0.12500000 </v>
   <v>       0.37500000       0.42500000       0.12500000 </v>
   <v>       0.42500000       0.42500000       0.12500000 </v>
   <v>       0.47500000       0.42500000       0.12500000 </v>
   <v>      -0.47500000       0.42500000       0.12500000 </v>
   <v>      -0.42500000       0.42500000       0.12500000 </v>
   <v>      -0.37500000       0.42500000       0.12500000 </v>
   <v>      -0.32500000       0.42500000       0.12500000 </v>
   <v>      -0.27500000       0.42500000       0.12500000 </v>
   <v>      -0.22500000       0.42500000       0.12500000 </v>
   <v>      -0.17500000       0.42500000       0.12500000 </v>
   <v>      -0.12500000       0.42500000       0.12500000 </v>
   <v>       0.12500000       0.47500000       0.12500000 </v>
   <v>       0.17500000       0.47500000       0.12500000 </v>
   <v>       0.22500000       0.47500000       0.12500000 </v>
   <v>       0.27500000       0.47500000       0.12500000 </v>
   <v>       0.32500000       0.47500000       0.12500000 </v>
   <v>       0.37500000       0.47500000       0.12500000 </v>
   <v>       0.42500000       0.47500000       0.12500000 </v>
   <v>       0.47500000       0.47500000       0.12500000 </v>
   <v>      -0.47500000       0.47500000       0.12500000 </v>
   <v>      -0.42500000       0.47500000       0.12500000 </v>
   <v>      -0.37500000       0.47500000       0.12500000 </v>
   <v>      -0.32500000       0.47500000       0.12500000 </v>
   <v>      -0.27500000       0.47500000       0.12500000 </v>
   <v>      -0.22500000       0.47500000       0.12500000 </v>
   <v>      -0.17500000       0.47500000       0.12500000 </v>
   <v>      -0.12500000       0.47500000       0.12500000 </v>
   <v>       0.17500000       0.02500000       0.17500000 </v>
   <v>       0.22500000       0.02500000       0.17500000 </v>
   <v>       0.27500000       0.02500000       0.17500000 </v>
   <v>       0.32500000       0.02500000       0.17500000 </v>
   <v>       0.37500000       0.02500000       0.17500000 </v>
   <v>       0.42500000       0.02500000       0.17500000 </v>
   <v>       0.47500000       0.02500000       0.17500000 </v>
   <v>      -0.47500000       0.02500000       0.17500000 </v>
   <v>      -0.42500000       0.02500000       0.17500000 </v>
   <v>      -0.37500000       0.02500000       0.17500000 </v>
   <v>      -0.32500000       0.02500000       0.17500000 </v>
   <v>      -0.27500000       0.02500000       0.17500000 </v>
   <v>      -0.22500000       0.02500000       0.17500000 </v>
   <v>      -0.17500000       0.02500000       0.17500000 </v>
   <v>       0.17500000       0.07500000       0.17500000 </v>
   <v>       0.22500000       0.07500000       0.17500000 </v>
   <v>       0.27500000       0.07500000       0.17500000 </v>
   <v>       0.32500000       0.07500000       0.17500000 </v>
   <v>       0.37500000       0.07500000       0.17500000 </v>
   <v>       0.42500000       0.07500000       0.17500000 </v>
   <v>       0.47500000       0.07500000       0.17500000 </v>
   <v>      -0.47500000       0.07500000       0.17500000 </v>
   <v>      -0.42500000       0.07500000       0.17500000 </v>
   <v>      -0.37500000       0.07500000       0.17500000 </v>
   <v>      -0.32500000       0.07500000       0.17500000 </v>
   <v>      -0.27500000       0.07500000       0.17500000 </v>
   <v>      -0.22500000       0.07500000       0.17500000 </v>
   <v>      -0.17500000       0.07500000       0.17500000 </v>
   <v>       0.17500000       0.12500000       0.17500000 </v>
   <v>       0.22500000       0.12500000       0.17500000 </v>
   <v>       0.27500000       0.12500000       0.17500000 </v>
   <v>       0.32500000       0.12500000       0.17500000 </v>
   <v>       0.37500000       0.12500000       0.17500000 </v>
   <v>       0.42500000       0.12500000       0.17500000 </v>
   <v>       0.47500000       0.12500000       0.17500000 </v>
   <v>      -0.47500000       0.12500000       0.17500000 </v>
   <v>      -0.42500000       0.12500000       0.17500000 </v>
   <v>      -0.37500000       0.12500000       0.17500000 </v>
   <v>      -0.32500000       0.12500000       0.17500000 </v>
   <v>      -0.27500000       0.12500000       0.17500000 </v>
   <v>      -0.22500000       0.12500000       0.17500000 </v>
   <v>      -0.17500000       0.12500000       0.17500000 </v>
   <v>       0.17500000       0.17500000       0.17500000 </v>
   <v>       0.22500000       0.17500000       0.17500000 </v>
   <v>       0.27500000       0.17500000       0.17500000 </v>
   <v>       0.32500000       0.17500000       0.17500000 </v>
   <v>       0.37500000       0.17500000       0.17500000 </v>
   <v>       0.42500000       0.17500000       0.17500000 </v>
   <v>       0.47500000       0.17500000       0.17500000 </v>
   <v>      -0.47500000       0.17500000       0.17500000 </v>
   <v>      -0.42500000       0.17500000       0.17500000 </v>
   <v>      -0.37500000       0.17500000       0.17500000 </v>
   <v>      -0.32500000       0.17500000       0.17500000 </v>
   <v>      -0.27500000       0.17500000       0.17500000 </v>
   <v>      -0.22500000       0.17500000       0.17500000 </v>
   <v>      -0.17500000       0.17500000       0.17500000 </v>
   <v>       0.17500000       0.22500000       0.17500000 </v>
   <v>       0.22500000       0.22500000       0.17500000 </v>
   <v>       0.27500000       0.22500000       0.17500000 </v>
   <v>       0.32500000       0.22500000       0.17500000 </v>
   <v>       0.37500000       0.22500000       0.17500000 </v>
   <v>       0.42500000       0.22500000       0.17500000 </v>
   <v>       0.47500000       0.22500000       0.17500000 </v>
   <v>      -0.47500000       0.22500000       0.17500000 </v>
   <v>      -0.42500000       0.22500000       0.17500000 </v>
   <v>      -0.37500000       0.22500000       0.17500000 </v>
   <v>      -0.32500000       0.22500000       0.17500000 </v>
   <v>      -0.27500000       0.22500000       0.17500000 </v>
   <v>      -0.22500000       0.22500000       0.17500000 </v>
   <v>      -0.17500000       0.22500000       0.17500000 </v>
   <v>       0.17500000       0.27500000       0.17500000 </v>
   <v>       0.22500000       0.27500000       0.17500000 </v>
   <v>       0.27500000       0.27500000       0.17500000 </v>
   <v>       0.32500000       0.27500000       0.17500000 </v>
   <v>       0.37500000       0.27500000       0.17500000 </v>
   <v>       0.42500000       0.27500000       0.17500000 </v>
   <v>       0.47500000       0.27500000       0.17500000 </v>
   <v>      -0.47500000       0.27500000       0.17500000 </v>
   <v>      -0.42500000       0.27500000       0.17500000 </v>
   <v>      -0.37500000       0.27500000       0.17500000 </v>
   <v>      -0.32500000       0.27500000       0.17500000 </v>
   <v>      -0.27500000       0.27500000       0.17500000 </v>
   <v>      -0.22500000       0.27500000       0.17500000 </v>
   <v>      -0.17500000       0.27500000       0.17500000 </v>
   <v>       0.17500000       0.32500000       0.17500000 </v>
   <v>       0.22500000       0.32500000       0.17500000 </v>
   <v>       0.27500000       0.32500000       0.17500000 </v>
   <v>       0.32500000       0.32500000       0.17500000 </v>
   <v>       0.37500000       0.32500000       0.17500000 </v>
   <v>       0.42500000       0.32500000       0.17500000 </v>
   <v>       0.47500000       0.32500000       0.17500000 </v>
   <v>      -0.47500000       0.32500000       0.17500000 </v>
   <v>      -0.42500000       0.32500000       0.17500000 </v>
   <v>      -0.37500000       0.32500000       0.17500000 </v>
   <v>      -0.32500000       0.32500000       0.17500000 </v>
   <v>      -0.27500000       0.32500000       0.17500000 </v>
   <v>      -0.22500000       0.32500000       0.17500000 </v>
   <v>      -0.17500000       0.32500000       0.17500000 </v>
   <v>       0.17500000       0.37500000       0.17500000 </v>
   <v>       0.22500000       0.37500000       0.17500000 </v>
   <v>       0.27500000       0.37500000       0.17500000 </v>
   <v>       0.32500000       0.37500000       0.17500000 </v>
   <v>       0.37500000       0.37500000       0.17500000 </v>
   <v>       0.42500000       0.37500000       0.17500000 </v>
   <v>       0.47500000       0.37500000       0.17500000 </v>
   <v>      -0.47500000       0.37500000       0.17500000 </v>
   <v>      -0.42500000       0.37500000       0.17500000 </v>
   <v>      -0.37500000       0.37500000       0.17500000 </v>
   <v>      -0.32500000       0.37500000       0.17500000 </v>
   <v>      -0.27500000       0.37500000       0.17500000 </v>
   <v>      -0.22500000       0.37500000       0.17500000 </v>
   <v>      -0.17500000       0.37500000       0.17500000 </v>
   <v>       0.17500000       0.42500000       0.17500000 </v>
   <v>       0.22500000       0.42500000       0.17500000 </v>
   <v>       0.27500000       0.42500000       0.17500000 </v>
   <v>       0.32500000       0.42500000       0.17500000 </v>
   <v>       0.37500000       0.42500000       0.17500000 </v>
   <v>       0.42500000       0.42500000       0.17500000 </v>
   <v>       0.47500000       0.42500000       0.17500000 </v>
   <v>      -0.47500000       0.42500000       0.17500000 </v>
   <v>      -0.42500000       0.42500000       0.17500000 </v>
   <v>      -0.37500000       0.42500000       0.17500000 </v>
   <v>      -0.32500000       0.42500000       0.17500000 </v>
   <v>      -0.27500000       0.42500000       0.17500000 </v>
   <v>      -0.22500000       0.42500000       0.17500000 </v>
   <v>      -0.17500000       0.42500000       0.17500000 </v>
   <v>       0.17500000       0.47500000       0.17500000 </v>
   <v>       0.22500000       0.47500000       0.17500000 </v>
   <v>       0.27500000       0.47500000       0.17500000 </v>
   <v>       0.32500000       0.47500000       0.17500000 </v>
   <v>       0.37500000       0.47500000       0.17500000 </v>
   <v>       0.42500000       0.47500000       0.17500000 </v>
   <v>       0.47500000       0.47500000       0.17500000 </v>
   <v>      -0.47500000       0.47500000       0.17500000 </v>
   <v>      -0.42500000       0.47500000       0.17500000 </v>
   <v>      -0.37500000       0.47500000       0.17500000 </v>
   <v>      -0.32500000       0.47500000       0.17500000 </v>
   <v>      -0.27500000       0.47500000       0.17500000 </v>
   <v>      -0.22500000       0.47500000       0.17500000 </v>
   <v>      -0.17500000       0.47500000       0.17500000 </v>
   <v>       0.22500000       0.02500000       0.22500000 </v>
   <v>       0.27500000       0.02500000       0.22500000 </v>
   <v>       0.32500000       0.02500000       0.22500000 </v>
   <v>       0.37500000       0.02500000       0.22500000 </v>
   <v>       0.42500000       0.02500000       0.22500000 </v>
   <v>       0.47500000       0.02500000       0.22500000 </v>
   <v>      -0.47500000       0.02500000       0.22500000 </v>
   <v>      -0.42500000       0.02500000       0.22500000 </v>
   <v>      -0.37500000       0.02500000       0.22500000 </v>
   <v>      -0.32500000       0.02500000       0.22500000 </v>
   <v>      -0.27500000       0.02500000       0.22500000 </v>
   <v>      -0.22500000       0.02500000       0.22500000 </v>
   <v>       0.22500000       0.07500000       0.22500000 </v>
   <v>       0.27500000       0.07500000       0.22500000 </v>
   <v>       0.32500000       0.07500000       0.22500000 </v>
   <v>       0.37500000       0.07500000       0.22500000 </v>
   <v>       0.42500000       0.07500000       0.22500000 </v>
   <v>       0.47500000       0.07500000       0.22500000 </v>
   <v>      -0.47500000       0.07500000       0.22500000 </v>
   <v>      -0.42500000       0.07500000       0.22500000 </v>
   <v>      -0.37500000       0.07500000       0.22500000 </v>
   <v>      -0.32500000       0.07500000       0.22500000 </v>
   <v>      -0.27500000       0.07500000       0.22500000 </v>
   <v>      -0.22500000       0.07500000       0.22500000 </v>
   <v>       0.22500000       0.12500000       0.22500000 </v>
   <v>       0.27500000       0.12500000       0.22500000 </v>
   <v>       0.32500000       0.12500000       0.22500000 </v>
   <v>       0.37500000       0.12500000       0.22500000 </v>
   <v>       0.42500000       0.12500000       0.22500000 </v>
   <v>       0.47500000       0.12500000       0.22500000 </v>
   <v>      -0.47500000       0.12500000       0.22500000 </v>
   <v>      -0.42500000       0.12500000       0.22500000 </v>
   <v>      -0.37500000       0.12500000       0.22500000 </v>
   <v>      -0.32500000       0.12500000       0.22500000 </v>
   <v>      -0.27500000       0.12500000       0.22500000 </v>
   <v>      -0.22500000       0.12500000       0.22500000 </v>
   <v>       0.22500000       0.17500000       0.22500000 </v>
   <v>       0.27500000       0.17500000       0.22500000 </v>
   <v>       0.32500000       0.17500000       0.22500000 </v>
   <v>       0.37500000       0.17500000       0.22500000 </v>
   <v>       0.42500000       0.17500000       0.22500000 </v>
   <v>       0.47500000       0.17500000       0.22500000 </v>
   <v>      -0.47500000       0.17500000       0.22500000 </v>
   <v>      -0.42500000       0.17500000       0.22500000 </v>
   <v>      -0.37500000       0.17500000       0.22500000 </v>
   <v>      -0.32500000       0.17500000       0.22500000 </v>
   <v>      -0.27500000       0.17500000       0.22500000 </v>
   <v>      -0.22500000       0.17500000       0.22500000 </v>
   <v>       0.22500000       0.22500000       0.22500000 </v>
   <v>       0.27500000       0.22500000       0.22500000 </v>
   <v>       0.32500000       0.22500000       0.22500000 </v>
   <v>       0.37500000       0.22500000       0.22500000 </v>
   <v>       0.42500000       0.22500000       0.22500000 </v>
   <v>       0.47500000       0.22500000       0.22500000 </v>
   <v>      -0.47500000       0.22500000       0.22500000 </v>
   <v>      -0.42500000       0.22500000       0.22500000 </v>
   <v>      -0.37500000       0.22500000       0.22500000 </v>
   <v>      -0.32500000       0.22500000       0.22500000 </v>
   <v>      -0.27500000       0.22500000       0.22500000 </v>
   <v>      -0.22500000       0.22500000       0.22500000 </v>
   <v>       0.22500000       0.27500000       0.22500000 </v>
   <v>       0.27500000       0.27500000       0.22500000 </v>
   <v>       0.32500000       0.27500000       0.22500000 </v>
   <v>       0.37500000       0.27500000       0.22500000 </v>
   <v>       0.42500000       0.27500000       0.22500000 </v>
   <v>       0.47500000       0.27500000       0.22500000 </v>
   <v>      -0.47500000       0.27500000       0.22500000 </v>
   <v>      -0.42500000       0.27500000       0.22500000 </v>
   <v>      -0.37500000       0.27500000       0.22500000 </v>
   <v>      -0.32500000       0.27500000       0.22500000 </v>
   <v>      -0.27500000       0.27500000       0.22500000 </v>
   <v>      -0.22500000       0.27500000       0.22500000 </v>
   <v>       0.22500000       0.32500000       0.22500000 </v>
   <v>       0.27500000       0.32500000       0.22500000 </v>
   <v>       0.32500000       0.32500000       0.22500000 </v>
   <v>       0.37500000       0.32500000       0.22500000 </v>
   <v>       0.42500000       0.32500000       0.22500000 </v>
   <v>       0.47500000       0.32500000       0.22500000 </v>
   <v>      -0.47500000       0.32500000       0.22500000 </v>
   <v>      -0.42500000       0.32500000       0.22500000 </v>
   <v>      -0.37500000       0.32500000       0.22500000 </v>
   <v>      -0.32500000       0.32500000       0.22500000 </v>
   <v>      -0.27500000       0.32500000       0.22500000 </v>
   <v>      -0.22500000       0.32500000       0.22500000 </v>
   <v>       0.22500000       0.37500000       0.22500000 </v>
   <v>       0.27500000       0.37500000       0.22500000 </v>
   <v>       0.32500000       0.37500000       0.22500000 </v>
   <v>       0.37500000       0.37500000       0.22500000 </v>
   <v>       0.42500000       0.37500000       0.22500000 </v>
   <v>       0.47500000       0.37500000       0.22500000 </v>
   <v>      -0.47500000       0.37500000       0.22500000 </v>
   <v>      -0.42500000       0.37500000       0.22500000 </v>
   <v>      -0.37500000       0.37500000       0.22500000 </v>
   <v>      -0.32500000       0.37500000       0.22500000 </v>
   <v>      -0.27500000       0.37500000       0.22500000 </v>
   <v>      -0.22500000       0.37500000       0.22500000 </v>
   <v>       0.22500000       0.42500000       0.22500000 </v>
   <v>       0.27500000       0.42500000       0.22500000 </v>
   <v>       0.32500000       0.42500000       0.22500000 </v>
   <v>       0.37500000       0.42500000       0.22500000 </v>
   <v>       0.42500000       0.42500000       0.22500000 </v>
   <v>       0.47500000       0.42500000       0.22500000 </v>
   <v>      -0.47500000       0.42500000       0.22500000 </v>
   <v>      -0.42500000       0.42500000       0.22500000 </v>
   <v>      -0.37500000       0.42500000       0.22500000 </v>
   <v>      -0.32500000       0.42500000       0.22500000 </v>
   <v>      -0.27500000       0.42500000       0.22500000 </v>
   <v>      -0.22500000       0.42500000       0.22500000 </v>
   <v>       0.22500000       0.47500000       0.22500000 </v>
   <v>       0.27500000       0.47500000       0.22500000 </v>
   <v>       0.32500000       0.47500000       0.22500000 </v>
   <v>       0.37500000       0.47500000       0.22500000 </v>
   <v>       0.42500000       0.47500000       0.22500000 </v>
   <v>       0.47500000       0.47500000       0.22500000 </v>
   <v>      -0.47500000       0.47500000       0.22500000 </v>
   <v>      -0.42500000       0.47500000       0.22500000 </v>
   <v>      -0.37500000       0.47500000       0.22500000 </v>
   <v>      -0.32500000       0.47500000       0.22500000 </v>
   <v>      -0.27500000       0.47500000       0.22500000 </v>
   <v>      -0.22500000       0.47500000       0.22500000 </v>
   <v>       0.27500000       0.02500000       0.27500000 </v>
   <v>       0.32500000       0.02500000       0.27500000 </v>
   <v>       0.37500000       0.02500000       0.27500000 </v>
   <v>       0.42500000       0.02500000       0.27500000 </v>
   <v>       0.47500000       0.02500000       0.27500000 </v>
   <v>      -0.47500000       0.02500000       0.27500000 </v>
   <v>      -0.42500000       0.02500000       0.27500000 </v>
   <v>      -0.37500000       0.02500000       0.27500000 </v>
   <v>      -0.32500000       0.02500000       0.27500000 </v>
   <v>      -0.27500000       0.02500000       0.27500000 </v>
   <v>       0.27500000       0.07500000       0.27500000 </v>
   <v>       0.32500000       0.07500000       0.27500000 </v>
   <v>       0.37500000       0.07500000       0.27500000 </v>
   <v>       0.42500000       0.07500000       0.27500000 </v>
   <v>       0.47500000       0.07500000       0.27500000 </v>
   <v>      -0.47500000       0.07500000       0.27500000 </v>
   <v>      -0.42500000       0.07500000       0.27500000 </v>
   <v>      -0.37500000       0.07500000       0.27500000 </v>
   <v>      -0.32500000       0.07500000       0.27500000 </v>
   <v>      -0.27500000       0.07500000       0.27500000 </v>
   <v>       0.27500000       0.12500000       0.27500000 </v>
   <v>       0.32500000       0.12500000       0.27500000 </v>
   <v>       0.37500000       0.12500000       0.27500000 </v>
   <v>       0.42500000       0.12500000       0.27500000 </v>
   <v>       0.47500000       0.12500000       0.27500000 </v>
   <v>      -0.47500000       0.12500000       0.27500000 </v>
   <v>      -0.42500000       0.12500000       0.27500000 </v>
   <v>      -0.37500000       0.12500000       0.27500000 </v>
   <v>      -0.32500000       0.12500000       0.27500000 </v>
   <v>      -0.27500000       0.12500000       0.27500000 </v>
   <v>       0.27500000       0.17500000       0.27500000 </v>
   <v>       0.32500000       0.17500000       0.27500000 </v>
   <v>       0.37500000       0.17500000       0.27500000 </v>
   <v>       0.42500000       0.17500000       0.27500000 </v>
   <v>       0.47500000       0.17500000       0.27500000 </v>
   <v>      -0.47500000       0.17500000       0.27500000 </v>
   <v>      -0.42500000       0.17500000       0.27500000 </v>
   <v>      -0.37500000       0.17500000       0.27500000 </v>
   <v>      -0.32500000       0.17500000       0.27500000 </v>
   <v>      -0.27500000       0.17500000       0.27500000 </v>
   <v>       0.27500000       0.22500000       0.27500000 </v>
   <v>       0.32500000       0.22500000       0.27500000 </v>
   <v>       0.37500000       0.22500000       0.27500000 </v>
   <v>       0.42500000       0.22500000       0.27500000 </v>
   <v>       0.47500000       0.22500000       0.27500000 </v>
   <v>      -0.47500000       0.22500000       0.27500000 </v>
   <v>      -0.42500000       0.22500000       0.27500000 </v>
   <v>      -0.37500000       0.22500000       0.27500000 </v>
   <v>      -0.32500000       0.22500000       0.27500000 </v>
   <v>      -0.27500000       0.22500000       0.27500000 </v>
   <v>       0.27500000       0.27500000       0.27500000 </v>
   <v>       0.32500000       0.27500000       0.27500000 </v>
   <v>       0.37500000       0.27500000       0.27500000 </v>
   <v>       0.42500000       0.27500000       0.27500000 </v>
   <v>       0.47500000       0.27500000       0.27500000 </v>
   <v>      -0.47500000       0.27500000       0.27500000 </v>
   <v>      -0.42500000       0.27500000       0.27500000 </v>
   <v>      -0.37500000       0.27500000       0.27500000 </v>
   <v>      -0.32500000       0.27500000       0.27500000 </v>
   <v>      -0.27500000       0.27500000       0.27500000 </v>
   <v>       0.27500000       0.32500000       0.27500000 </v>
   <v>       0.32500000       0.32500000       0.27500000 </v>
   <v>       0.37500000       0.32500000       0.27500000 </v>
   <v>       0.42500000       0.32500000       0.27500000 </v>
   <v>       0.47500000       0.32500000       0.27500000 </v>
   <v>      -0.47500000       0.32500000       0.27500000 </v>
   <v>      -0.42500000       0.32500000       0.27500000 </v>
   <v>      -0.37500000       0.32500000       0.27500000 </v>
   <v>      -0.32500000       0.32500000       0.27500000 </v>
   <v>      -0.27500000       0.32500000       0.27500000 </v>
   <v>       0.27500000       0.37500000       0.27500000 </v>
   <v>       0.32500000       0.37500000       0.27500000 </v>
   <v>       0.37500000       0.37500000       0.27500000 </v>
   <v>       0.42500000       0.37500000       0.27500000 </v>
   <v>       0.47500000       0.37500000       0.27500000 </v>
   <v>      -0.47500000       0.37500000       0.27500000 </v>
   <v>      -0.42500000       0.37500000       0.27500000 </v>
   <v>      -0.37500000       0.37500000       0.27500000 </v>
   <v>      -0.32500000       0.37500000       0.27500000 </v>
   <v>      -0.27500000       0.37500000       0.27500000 </v>
   <v>       0.27500000       0.42500000       0.27500000 </v>
   <v>       0.32500000       0.42500000       0.27500000 </v>
   <v>       0.37500000       0.42500000       0.27500000 </v>
   <v>       0.42500000       0.42500000       0.27500000 </v>
   <v>       0.47500000       0.42500000       0.27500000 </v>
   <v>      -0.47500000       0.42500000       0.27500000 </v>
   <v>      -0.42500000       0.42500000       0.27500000 </v>
   <v>      -0.37500000       0.42500000       0.27500000 </v>
   <v>      -0.32500000       0.42500000       0.27500000 </v>
   <v>      -0.27500000       0.42500000       0.27500000 </v>
   <v>       0.27500000       0.47500000       0.27500000 </v>
   <v>       0.32500000       0.47500000       0.27500000 </v>
   <v>       0.37500000       0.47500000       0.27500000 </v>
   <v>       0.42500000       0.47500000       0.27500000 </v>
   <v>       0.47500000       0.47500000       0.27500000 </v>
   <v>      -0.47500000       0.47500000       0.27500000 </v>
   <v>      -0.42500000       0.47500000       0.27500000 </v>
   <v>      -0.37500000       0.47500000       0.27500000 </v>
   <v>      -0.32500000       0.47500000       0.27500000 </v>
   <v>      -0.27500000       0.47500000       0.27500000 </v>
   <v>       0.32500000       0.02500000       0.32500000 </v>
   <v>       0.37500000       0.02500000       0.32500000 </v>
   <v>       0.42500000       0.02500000       0.32500000 </v>
   <v>       0.47500000       0.02500000       0.32500000 </v>
   <v>      -0.47500000       0.02500000       0.32500000 </v>
   <v>      -0.42500000       0.02500000       0.32500000 </v>
   <v>      -0.37500000       0.02500000       0.32500000 </v>
   <v>      -0.32500000       0.02500000       0.32500000 </v>
   <v>       0.32500000       0.07500000       0.32500000 </v>
   <v>       0.37500000       0.07500000       0.32500000 </v>
   <v>       0.42500000       0.07500000       0.32500000 </v>
   <v>       0.47500000       0.07500000       0.32500000 </v>
   <v>      -0.47500000       0.07500000       0.32500000 </v>
   <v>      -0.42500000       0.07500000       0.32500000 </v>
   <v>      -0.37500000       0.07500000       0.32500000 </v>
   <v>      -0.32500000       0.07500000       0.32500000 </v>
   <v>       0.32500000       0.12500000       0.32500000 </v>
   <v>       0.37500000       0.12500000       0.32500000 </v>
   <v>       0.42500000       0.12500000       0.32500000 </v>
   <v>       0.47500000       0.12500000       0.32500000 </v>
   <v>      -0.47500000       0.12500000       0.32500000 </v>
   <v>      -0.42500000       0.12500000       0.32500000 </v>
   <v>      -0.37500000       0.12500000       0.32500000 </v>
   <v>      -0.32500000       0.12500000       0.32500000 </v>
   <v>       0.32500000       0.17500000       0.32500000 </v>
   <v>       0.37500000       0.17500000       0.32500000 </v>
   <v>       0.42500000       0.17500000       0.32500000 </v>
   <v>       0.47500000       0.17500000       0.32500000 </v>
   <v>      -0.47500000       0.17500000       0.32500000 </v>
   <v>      -0.42500000       0.17500000       0.32500000 </v>
   <v>      -0.37500000       0.17500000       0.32500000 </v>
   <v>      -0.32500000       0.17500000       0.32500000 </v>
   <v>       0.32500000       0.22500000       0.32500000 </v>
   <v>       0.37500000       0.22500000       0.32500000 </v>
   <v>       0.42500000       0.22500000       0.32500000 </v>
   <v>       0.47500000       0.22500000       0.32500000 </v>
   <v>      -0.47500000       0.22500000       0.32500000 </v>
   <v>      -0.42500000       0.22500000       0.32500000 </v>
   <v>      -0.37500000       0.22500000       0.32500000 </v>
   <v>      -0.32500000       0.22500000       0.32500000 </v>
   <v>       0.32500000       0.27500000       0.32500000 </v>
   <v>       0.37500000       0.27500000       0.32500000 </v>
   <v>       0.42500000       0.27500000       0.32500000 </v>
   <v>       0.47500000       0.27500000       0.32500000 </v>
   <v>      -0.47500000       0.27500000       0.32500000 </v>
   <v>      -0.42500000       0.27500000       0.32500000 </v>
   <v>      -0.37500000       0.27500000       0.32500000 </v>
   <v>      -0.32500000       0.27500000       0.32500000 </v>
   <v>       0.32500000       0.32500000       0.32500000 </v>
   <v>       0.37500000       0.32500000       0.32500000 </v>
   <v>       0.42500000       0.32500000       0.32500000 </v>
   <v>       0.47500000       0.32500000       0.32500000 </v>
   <v>      -0.47500000       0.32500000       0.32500000 </v>
   <v>      -0.42500000       0.32500000       0.32500000 </v>
   <v>      -0.37500000       0.32500000       0.32500000 </v>
   <v>      -0.32500000       0.32500000       0.32500000 </v>
   <v>       0.32500000       0.37500000       0.32500000 </v>
   <v>       0.37500000       0.37500000       0.32500000 </v>
   <v>       0.42500000       0.37500000       0.32500000 </v>
   <v>       0.47500000       0.37500000       0.32500000 </v>
   <v>      -0.47500000       0.37500000       0.32500000 </v>
   <v>      -0.42500000       0.37500000       0.32500000 </v>
   <v>      -0.37500000       0.37500000       0.32500000 </v>
   <v>      -0.32500000       0.37500000       0.32500000 </v>
   <v>       0.32500000       0.42500000       0.32500000 </v>
   <v>       0.37500000       0.42500000       0.32500000 </v>
   <v>       0.42500000       0.42500000       0.32500000 </v>
   <v>       0.47500000       0.42500000       0.32500000 </v>
   <v>      -0.47500000       0.42500000       0.32500000 </v>
   <v>      -0.42500000       0.42500000       0.32500000 </v>
   <v>      -0.37500000       0.42500000       0.32500000 </v>
   <v>      -0.32500000       0.42500000       0.32500000 </v>
   <v>       0.32500000       0.47500000       0.32500000 </v>
   <v>       0.37500000       0.47500000       0.32500000 </v>
   <v>       0.42500000       0.47500000       0.32500000 </v>
   <v>       0.47500000       0.47500000       0.32500000 </v>
   <v>      -0.47500000       0.47500000       0.32500000 </v>
   <v>      -0.42500000       0.47500000       0.32500000 </v>
   <v>      -0.37500000       0.47500000       0.32500000 </v>
   <v>      -0.32500000       0.47500000       0.32500000 </v>
   <v>       0.37500000       0.02500000       0.37500000 </v>
   <v>       0.42500000       0.02500000       0.37500000 </v>
   <v>       0.47500000       0.02500000       0.37500000 </v>
   <v>      -0.47500000       0.02500000       0.37500000 </v>
   <v>      -0.42500000       0.02500000       0.37500000 </v>
   <v>      -0.37500000       0.02500000       0.37500000 </v>
   <v>       0.37500000       0.07500000       0.37500000 </v>
   <v>       0.42500000       0.07500000       0.37500000 </v>
   <v>       0.47500000       0.07500000       0.37500000 </v>
   <v>      -0.47500000       0.07500000       0.37500000 </v>
   <v>      -0.42500000       0.07500000       0.37500000 </v>
   <v>      -0.37500000       0.07500000       0.37500000 </v>
   <v>       0.37500000       0.12500000       0.37500000 </v>
   <v>       0.42500000       0.12500000       0.37500000 </v>
   <v>       0.47500000       0.12500000       0.37500000 </v>
   <v>      -0.47500000       0.12500000       0.37500000 </v>
   <v>      -0.42500000       0.12500000       0.37500000 </v>
   <v>      -0.37500000       0.12500000       0.37500000 </v>
   <v>       0.37500000       0.17500000       0.37500000 </v>
   <v>       0.42500000       0.17500000       0.37500000 </v>
   <v>       0.47500000       0.17500000       0.37500000 </v>
   <v>      -0.47500000       0.17500000       0.37500000 </v>
   <v>      -0.42500000       0.17500000       0.37500000 </v>
   <v>      -0.37500000       0.17500000       0.37500000 </v>
   <v>       0.37500000       0.22500000       0.37500000 </v>
   <v>       0.42500000       0.22500000       0.37500000 </v>
   <v>       0.47500000       0.22500000       0.37500000 </v>
   <v>      -0.47500000       0.22500000       0.37500000 </v>
   <v>      -0.42500000       0.22500000       0.37500000 </v>
   <v>      -0.37500000       0.22500000       0.37500000 </v>
   <v>       0.37500000       0.27500000       0.37500000 </v>
   <v>       0.42500000       0.27500000       0.37500000 </v>
   <v>       0.47500000       0.27500000       0.37500000 </v>
   <v>      -0.47500000       0.27500000       0.37500000 </v>
   <v>      -0.42500000       0.27500000       0.37500000 </v>
   <v>      -0.37500000       0.27500000       0.37500000 </v>
   <v>       0.37500000       0.32500000       0.37500000 </v>
   <v>       0.42500000       0.32500000       0.37500000 </v>
   <v>       0.47500000       0.32500000       0.37500000 </v>
   <v>      -0.47500000       0.32500000       0.37500000 </v>
   <v>      -0.42500000       0.32500000       0.37500000 </v>
   <v>      -0.37500000       0.32500000       0.37500000 </v>
   <v>       0.37500000       0.37500000       0.37500000 </v>
   <v>       0.42500000       0.37500000       0.37500000 </v>
   <v>       0.47500000       0.37500000       0.37500000 </v>
   <v>      -0.47500000       0.37500000       0.37500000 </v>
   <v>      -0.42500000       0.37500000       0.37500000 </v>
   <v>      -0.37500000       0.37500000       0.37500000 </v>
   <v>       0.37500000       0.42500000       0.37500000 </v>
   <v>       0.42500000       0.42500000       0.37500000 </v>
   <v>       0.47500000       0.42500000       0.37500000 </v>
   <v>      -0.47500000       0.42500000       0.37500000 </v>
   <v>      -0.42500000       0.42500000       0.37500000 </v>
   <v>      -0.37500000       0.42500000       0.37500000 </v>
   <v>       0.37500000       0.47500000       0.37500000 </v>
   <v>       0.42500000       0.47500000       0.37500000 </v>
   <v>       0.47500000       0.47500000       0.37500000 </v>
   <v>      -0.47500000       0.47500000       0.37500000 </v>
   <v>      -0.42500000       0.47500000       0.37500000 </v>
   <v>      -0.37500000       0.47500000       0.37500000 </v>
   <v>       0.42500000       0.02500000       0.42500000 </v>
   <v>       0.47500000       0.02500000       0.42500000 </v>
   <v>      -0.47500000       0.02500000       0.42500000 </v>
   <v>      -0.42500000       0.02500000       0.42500000 </v>
   <v>       0.42500000       0.07500000       0.42500000 </v>
   <v>       0.47500000       0.07500000       0.42500000 </v>
   <v>      -0.47500000       0.07500000       0.42500000 </v>
   <v>      -0.42500000       0.07500000       0.42500000 </v>
   <v>       0.42500000       0.12500000       0.42500000 </v>
   <v>       0.47500000       0.12500000       0.42500000 </v>
   <v>      -0.47500000       0.12500000       0.42500000 </v>
   <v>      -0.42500000       0.12500000       0.42500000 </v>
   <v>       0.42500000       0.17500000       0.42500000 </v>
   <v>       0.47500000       0.17500000       0.42500000 </v>
   <v>      -0.47500000       0.17500000       0.42500000 </v>
   <v>      -0.42500000       0.17500000       0.42500000 </v>
   <v>       0.42500000       0.22500000       0.42500000 </v>
   <v>       0.47500000       0.22500000       0.42500000 </v>
   <v>      -0.47500000       0.22500000       0.42500000 </v>
   <v>      -0.42500000       0.22500000       0.42500000 </v>
   <v>       0.42500000       0.27500000       0.42500000 </v>
   <v>       0.47500000       0.27500000       0.42500000 </v>
   <v>      -0.47500000       0.27500000       0.42500000 </v>
   <v>      -0.42500000       0.27500000       0.42500000 </v>
   <v>       0.42500000       0.32500000       0.42500000 </v>
   <v>       0.47500000       0.32500000       0.42500000 </v>
   <v>      -0.47500000       0.32500000       0.42500000 </v>
   <v>      -0.42500000       0.32500000       0.42500000 </v>
   <v>       0.42500000       0.37500000       0.42500000 </v>
   <v>       0.47500000       0.37500000       0.42500000 </v>
   <v>      -0.47500000       0.37500000       0.42500000 </v>
   <v>      -0.42500000       0.37500000       0.42500000 </v>
   <v>       0.42500000       0.42500000       0.42500000 </v>
   <v>       0.47500000       0.42500000       0.42500000 </v>
   <v>      -0.47500000       0.42500000       0.42500000 </v>
   <v>      -0.42500000       0.42500000       0.42500000 </v>
   <v>       0.42500000       0.47500000       0.42500000 </v>
   <v>       0.47500000       0.47500000       0.42500000 </v>
   <v>      -0.47500000       0.47500000       0.42500000 </v>
   <v>      -0.42500000       0.47500000       0.42500000 </v>
   <v>       0.47500000       0.02500000       0.47500000 </v>
   <v>      -0.47500000       0.02500000       0.47500000 </v>
   <v>       0.47500000       0.07500000       0.47500000 </v>
   <v>      -0.47500000       0.07500000       0.47500000 </v>
   <v>       0.47500000       0.12500000       0.47500000 </v>
   <v>      -0.47500000       0.12500000       0.47500000 </v>
   <v>       0.47500000       0.17500000       0.47500000 </v>
   <v>      -0.47500000       0.17500000       0.47500000 </v>
   <v>       0.47500000       0.22500000       0.47500000 </v>
   <v>      -0.47500000       0.22500000       0.47500000 </v>
   <v>       0.47500000       0.27500000       0.47500000 </v>
   <v>      -0.47500000       0.27500000       0.47500000 </v>
   <v>       0.47500000       0.32500000       0.47500000 </v>
   <v>      -0.47500000       0.32500000       0.47500000 </v>
   <v>       0.47500000       0.37500000       0.47500000 </v>
   <v>      -0.47500000       0.37500000       0.47500000 </v>
   <v>       0.47500000       0.42500000       0.47500000 </v>
   <v>      -0.47500000       0.42500000       0.47500000 </v>
   <v>       0.47500000       0.47500000       0.47500000 </v>
   <v>      -0.47500000       0.47500000       0.47500000 </v>
  </varray>
  <varray name="weights" >
   <v>       0.00050000 </v>
   <v>       0.00100000 </v>
   <v>       0.00100000 </v>
   <v>       0.00100000 </v>
   <v>       0.00100000 </v>
   <v>       0.00100000 </v>
   <v>       0.00100000 </v>
   <v>       0.00100000 </v>
   <v>       0.00100000 </v>
   <v>       0.00100000 </v>
   <v>       0.00100000 </v>
   <v>       0.00100000 </v>
   <v>       0.00100000 </v>
   <v>       0.00100000 </v>
   <v>       0.00100000 </v>
   <v>       0.00100000 </v>
   <v>       0.00100000 </v>
   <v>       0.00100000 </v>
   <v>       0.00100000 </v>
   <v>       0.00050000 </v>
   <v>       0.00050000 </v>
   <v>       0.00100000 </v>
   <v>       0.00100000 </v>
   <v>       0.00100000 </v>
   <v>       0.00100000 </v>
   <v>       0.00100000 </v>
   <v>       0.00100000 </v>
   <v>       0.00100000 </v>
   <v>       0.00100000 </v>
   <v>       0.00100000 </v>
   <v>       0.00100000 </v>
   <v>       0.00100000 </v>
   <v>       0.00100000 </v>
   <v>       0.00100000 </v>
   <v>       0.00100000 </v>
   <v>       0.00100000 </v>
   <v>       0.00100000 </v>
   <v>       0.00100000 </v>
   <v>       0.00100000 </v>
   <v>       0.00050000 </v>
   <v>       0.00050000 </v>
   <v>       0.00100000 </v>
   <v>       0.00100000 </v>
   <v>       0.00100000 </v>
   <v>       0.00100000 </v>
   <v>       0.00100000 </v>
   <v>       0.00100000 </v>
   <v>       0.00100000 </v>
   <v>       0.00100000 </v>
   <v>       0.00100000 </v>
   <v>       0.00100000 </v>
   <v>       0.00100000 </v>
   <v>       0.00100000 </v>
   <v>       0.00100000 </v>
   <v>       0.00100000 </v>
   <v>       0.00100000 </v>
   <v>       0.00100000 </v>
   <v>       0.00100000 </v>
   <v>       0.00100000 </v>
   <v>       0.00050000 </v>
   <v>       0.00050000 </v>
   <v>       0.00100000 </v>
   <v>       0.00100000 </v>
   <v>       0.00100000 </v>
   <v>       0.00100000 </v>
   <v>       0.00100000 </v>
   <v>       0.00100000 </v>
   <v>       0.00100000 </v>
   <v>       0.00100000 </v>
   <v>       0.00100000 </v>
   <v>       0.00100000 </v>
   <v>       0.00100000 </v>
   <v>       0.00100000 </v>
   <v>       0.00100000 </v>
   <v>       0.00100000 </v>
   <v>       0.00100000 </v>
   <v>       0.00100000 </v>
   <v>       0.00100000 </v>
   <v>       0.00100000 </v>
   <v>       0.00050000 </v>
   <v>       0.00050000 </v>
   <v>       0.00100000 </v>
   <v>       0.00100000 </v>
   <v>       0.00100000 </v>
   <v>       0.00100000 </v>
   <v>       0.00100000 </v>
   <v>       0.00100000 </v>
   <v>       0.00100000 </v>
   <v>       0.00100000 </v>
   <v>       0.00100000 </v>
   <v>       0.00100000 </v>
   <v>       0.00100000 </v>
   <v>       0.00100000 </v>
   <v>       0.00100000 </v>
   <v>       0.00100000 </v>
   <v>       0.00100000 </v>
   <v>       0.00100000 </v>
   <v>       0.00100000 </v>
   <v>       0.00100000 </v>
   <v>       0.00050000 </v>
   <v>       0.00050000 </v>
   <v>       0.00100000 </v>
   <v>       0.00100000 </v>
   <v>       0.00100000 </v>
   <v>       0.00100000 </v>
   <v>       0.00100000 </v>
   <v>       0.00100000 </v>
   <v>       0.00100000 </v>
   <v>       0.00100000 </v>
   <v>       0.00100000 </v>
   <v>       0.00100000 </v>
   <v>       0.00100000 </v>
   <v>       0.00100000 </v>
   <v>       0.00100000 </v>
   <v>       0.00100000 </v>
   <v>       0.00100000 </v>
   <v>       0.00100000 </v>
   <v>       0.00100000 </v>
   <v>       0.00100000 </v>
   <v>       0.00050000 </v>
   <v>       0.00050000 </v>
   <v>       0.00100000 </v>
   <v>       0.00100000 </v>
   <v>       0.00100000 </v>
   <v>       0.00100000 </v>
   <v>       0.00100000 </v>
   <v>       0.00100000 </v>
   <v>       0.00100000 </v>
   <v>       0.00100000 </v>
   <v>       0.00100000 </v>
   <v>       0.00100000 </v>
   <v>       0.00100000 </v>
   <v>       0.00100000 </v>
   <v>       0.00100000 </v>
   <v>       0.00100000 </v>
   <v>       0.00100000 </v>
   <v>       0.00100000 </v>
   <v>       0.00100000 </v>
   <v>       0.00100000 </v>
   <v>       0.00050000 </v>
   <v>       0.00050000 </v>
   <v>       0.00100000 </v>
   <v>       0.00100000 </v>
   <v>       0.00100000 </v>
   <v>       0.00100000 </v>
   <v>       0.00100000 </v>
   <v>       0.00100000 </v>
   <v>       0.00100000 </v>
   <v>       0.00100000 </v>
   <v>       0.00100000 </v>
   <v>       0.00100000 </v>
   <v>       0.00100000 </v>
   <v>       0.00100000 </v>
   <v>       0.00100000 </v>
   <v>       0.00100000 </v>
   <v>       0.00100000 </v>
   <v>       0.00100000 </v>
   <v>       0.00100000 </v>
   <v>       0.00100000 </v>
   <v>       0.00050000 </v>
   <v>       0.00050000 </v>
   <v>       0.00100000 </v>
   <v>       0.00100000 </v>
   <v>       0.00100000 </v>
   <v>       0.00100000 </v>
   <v>       0.00100000 </v>
   <v>       0.00100000 </v>
   <v>       0.00100000 </v>
   <v>       0.00100000 </v>
   <v>       0.00100000 </v>
   <v>       0.00100000 </v>
   <v>       0.00100000 </v>
   <v>       0.00100000 </v>
   <v>       0.00100000 </v>
   <v>       0.00100000 </v>
   <v>       0.00100000 </v>
   <v>       0.00100000 </v>
   <v>       0.00100000 </v>
   <v>       0.00100000 </v>
   <v>       0.00050000 </v>
   <v>       0.00050000 </v>
   <v>       0.00100000 </v>
   <v>       0.00100000 </v>
   <v>       0.00100000 </v>
   <v>       0.00100000 </v>
   <v>       0.00100000 </v>
   <v>       0.00100000 </v>
   <v>       0.00100000 </v>
   <v>       0.00100000 </v>
   <v>       0.00100000 </v>
   <v>       0.00100000 </v>
   <v>       0.00100000 </v>
   <v>       0.00100000 </v>
   <v>       0.00100000 </v>
   <v>       0.00100000 </v>
   <v>       0.00100000 </v>
   <v>       0.00100000 </v>
   <v>       0.00100000 </v>
   <v>       0.00100000 </v>
   <v>       0.00050000 </v>
   <v>       0.00050000 </v>
   <v>       0.00100000 </v>
   <v>       0.00100000 </v>
   <v>       0.00100000 </v>
   <v>       0.00100000 </v>
   <v>       0.00100000 </v>
   <v>       0.00100000 </v>
   <v>       0.00100000 </v>
   <v>       0.00100000 </v>
   <v>       0.00100000 </v>
   <v>       0.00100000 </v>
   <v>       0.00100000 </v>
   <v>       0.00100000 </v>
   <v>       0.00100000 </v>
   <v>       0.00100000 </v>
   <v>       0.00100000 </v>
   <v>       0.00100000 </v>
   <v>       0.00050000 </v>
   <v>       0.00050000 </v>
   <v>       0.00100000 </v>
   <v>       0.00100000 </v>
   <v>       0.00100000 </v>
   <v>       0.00100000 </v>
   <v>       0.00100000 </v>
   <v>       0.00100000 </v>
   <v>       0.00100000 </v>
   <v>       0.00100000 </v>
   <v>       0.00100000 </v>
   <v>       0.00100000 </v>
   <v>       0.00100000 </v>
   <v>       0.00100000 </v>
   <v>       0.00100000 </v>
   <v>       0.00100000 </v>
   <v>       0.00100000 </v>
   <v>       0.00100000 </v>
   <v>       0.00050000 </v>
   <v>       0.00050000 </v>
   <v>       0.00100000 </v>
   <v>       0.00100000 </v>
   <v>       0.00100000 </v>
   <v>       0.00100000 </v>
   <v>       0.00100000 </v>
   <v>       0.00100000 </v>
   <v>       0.00100000 </v>
   <v>       0.00100000 </v>
   <v>       0.00100000 </v>
   <v>       0.00100000 </v>
   <v>       0.00100000 </v>
   <v>       0.00100000 </v>
   <v>       0.00100000 </v>
   <v>       0.00100000 </v>
   <v>       0.00100000 </v>
   <v>       0.00100000 </v>
   <v>       0.00050000 </v>
   <v>       0.00050000 </v>
   <v>       0.00100000 </v>
   <v>       0.00100000 </v>
   <v>       0.00100000 </v>
   <v>       0.00100000 </v>
   <v>       0.00100000 </v>
   <v>       0.00100000 </v>
   <v>       0.00100000 </v>
   <v>       0.00100000 </v>
   <v>       0.00100000 </v>
   <v>       0.00100000 </v>
   <v>       0.00100000 </v>
   <v>       0.00100000 </v>
   <v>       0.00100000 </v>
   <v>       0.00100000 </v>
   <v>       0.00100000 </v>
   <v>       0.00100000 </v>
   <v>       0.00050000 </v>
   <v>       0.00050000 </v>
   <v>       0.00100000 </v>
   <v>       0.00100000 </v>
   <v>       0.00100000 </v>
   <v>       0.00100000 </v>
   <v>       0.00100000 </v>
   <v>       0.00100000 </v>
   <v>       0.00100000 </v>
   <v>       0.00100000 </v>
[...]
       <r>    2.3620    1.0000 </r>
       <r>    2.3620    1.0000 </r>
       <r>    2.6185    1.0000 </r>
       <r>    4.8065    1.0000 </r>
       <r>    5.4077    1.0000 </r>
       <r>    5.4077    1.0000 </r>
       <r>    5.6480    1.0000 </r>
       <r>   15.8036    0.0000 </r>
       <r>   16.3318    0.0000 </r>
       <r>   16.3318    0.0000 </r>
       <r>   16.5470    0.0000 </r>
       <r>   17.8036    0.0000 </r>
       <r>   17.8036    0.0000 </r>
      </set>
      <set comment="kpoint 1095">
       <r>    2.2231    1.0000 </r>
       <r>    2.4968    1.0000 </r>
       <r>    2.4968    1.0000 </r>
       <r>    3.1036    1.0000 </r>
       <r>    4.4202    1.0000 </r>
       <r>    4.6710    1.0000 </r>
       <r>    4.6710    1.0000 </r>
       <r>    5.2895    1.0000 </r>
       <r>   16.9799    0.0000 </r>
       <r>   17.1857    0.0000 </r>
       <r>   17.1858    0.0000 </r>
       <r>   17.6788    0.0000 </r>
       <r>   17.9645    0.0000 </r>
       <r>   18.5696    0.0000 </r>
      </set>
      <set comment="kpoint 1096">
       <r>    2.0683    1.0000 </r>
       <r>    2.6655    1.0000 </r>
       <r>    2.6655    1.0000 </r>
       <r>    2.9223    1.0000 </r>
       <r>    4.2491    1.0000 </r>
       <r>    4.8530    1.0000 </r>
       <r>    4.8530    1.0000 </r>
       <r>    5.0921    1.0000 </r>
       <r>   16.8418    0.0000 </r>
       <r>   17.3240    0.0000 </r>
       <r>   17.3240    0.0000 </r>
       <r>   17.5399    0.0000 </r>
       <r>   18.0700    0.0000 </r>
       <r>   18.0754    0.0000 </r>
      </set>
      <set comment="kpoint 1097">
       <r>    2.5705    1.0000 </r>
       <r>    2.8445    1.0000 </r>
       <r>    2.8445    1.0000 </r>
       <r>    3.4225    1.0000 </r>
       <r>    3.9311    1.0000 </r>
       <r>    4.1553    1.0000 </r>
       <r>    4.1553    1.0000 </r>
       <r>    4.7764    1.0000 </r>
       <r>   17.9858    0.0000 </r>
       <r>   18.1553    0.0000 </r>
       <r>   18.1559    0.0000 </r>
       <r>   18.2788    0.0000 </r>
       <r>   18.5842    0.0000 </r>
       <r>   18.8569    0.0000 </r>
      </set>
      <set comment="kpoint 1098">
       <r>    2.4178    1.0000 </r>
       <r>    3.0084    1.0000 </r>
       <r>    3.0084    1.0000 </r>
       <r>    3.2629    1.0000 </r>
       <r>    3.7383    1.0000 </r>
       <r>    4.3422    1.0000 </r>
       <r>    4.3422    1.0000 </r>
       <r>    4.5768    1.0000 </r>
       <r>   17.8708    0.0000 </r>
       <r>   18.2425    0.0000 </r>
       <r>   18.2446    0.0000 </r>
       <r>   18.3667    0.0000 </r>
       <r>   18.3797    0.0000 </r>
       <r>   18.4903    0.0000 </r>
      </set>
      <set comment="kpoint 1099">
       <r>    2.9572    1.0000 </r>
       <r>    3.2283    1.0000 </r>
       <r>    3.2283    1.0000 </r>
       <r>    3.3655    1.0000 </r>
       <r>    3.6873    1.0000 </r>
       <r>    3.6873    1.0000 </r>
       <r>    3.9018    1.0000 </r>
       <r>    4.3079    1.0000 </r>
       <r>   18.6357    0.0000 </r>
       <r>   18.9140    0.0000 </r>
       <r>   18.9330    0.0000 </r>
       <r>   18.9546    0.0000 </r>
       <r>   19.0382    0.0000 </r>
       <r>   19.1936    0.0000 </r>
      </set>
      <set comment="kpoint 1100">
       <r>    2.8091    1.0000 </r>
       <r>    3.2358    1.0000 </r>
       <r>    3.3724    1.0000 </r>
       <r>    3.3724    1.0000 </r>
       <r>    3.6790    1.0000 </r>
       <r>    3.8942    1.0000 </r>
       <r>    3.8942    1.0000 </r>
       <r>    4.1036    1.0000 </r>
       <r>   18.6598    0.0000 </r>
       <r>   18.6611    0.0000 </r>
       <r>   18.8210    0.0000 </r>
       <r>   18.8239    0.0000 </r>
       <r>   18.8473    0.0000 </r>
       <r>   19.2210    0.0000 </r>
      </set>
     </set>
    </set>
   </array>
  </eigenvalues>
  <separator name="orbital magnetization" >
   <v name="MAGDIPOLOUT">      0.00000000      0.00000000      0.00000000</v>
  </separator>
  <dos>
   <i name="efermi">      8.03479567 </i>
   <total>
    <array>
     <dimension dim="1">gridpoints</dimension>
     <dimension dim="2">spin</dimension>
     <field>energy</field>
     <field>total</field>
     <field>integrated</field>
     <set>
      <set comment="spin 1">
       <r>    -5.1109     0.0000     0.0000 </r>
       <r>    -5.0231     0.0000     0.0000 </r>
       <r>    -4.9354     0.0000     0.0000 </r>
       <r>    -4.8476     0.0000     0.0000 </r>
       <r>    -4.7598    -0.0000    -0.0000 </r>
       <r>    -4.6720    -0.0000    -0.0000 </r>
       <r>    -4.5843    -0.0000    -0.0000 </r>
       <r>    -4.4965    -0.0000    -0.0000 </r>
       <r>    -4.4087    -0.0000    -0.0000 </r>
       <r>    -4.3209    -0.0000    -0.0000 </r>
       <r>    -4.2332    -0.0000    -0.0000 </r>
       <r>    -4.1454    -0.0000    -0.0000 </r>
       <r>    -4.0576    -0.0000    -0.0000 </r>
       <r>    -3.9699    -0.0000    -0.0000 </r>
       <r>    -3.8821    -0.0000    -0.0000 </r>
       <r>    -3.7943    -0.0000    -0.0000 </r>
       <r>    -3.7065    -0.0000    -0.0000 </r>
       <r>    -3.6188    -0.0000    -0.0000 </r>
       <r>    -3.5310    -0.0003    -0.0000 </r>
       <r>    -3.4432    -0.0016    -0.0002 </r>
       <r>    -3.3554    -0.0042    -0.0005 </r>
       <r>    -3.2677    -0.0049    -0.0010 </r>
       <r>    -3.1799     0.0085    -0.0002 </r>
       <r>    -3.0921     0.0490     0.0041 </r>
       <r>    -3.0044     0.1125     0.0140 </r>
       <r>    -2.9166     0.1784     0.0296 </r>
       <r>    -2.8288     0.2310     0.0499 </r>
       <r>    -2.7410     0.2707     0.0736 </r>
       <r>    -2.6533     0.3036     0.1003 </r>
       <r>    -2.5655     0.3324     0.1295 </r>
       <r>    -2.4777     0.3593     0.1610 </r>
       <r>    -2.3899     0.3865     0.1949 </r>
       <r>    -2.3022     0.4089     0.2308 </r>
       <r>    -2.2144     0.4291     0.2685 </r>
       <r>    -2.1266     0.4555     0.3085 </r>
       <r>    -2.0389     0.4777     0.3504 </r>
       <r>    -1.9511     0.4896     0.3934 </r>
       <r>    -1.8633     0.5081     0.4380 </r>
       <r>    -1.7755     0.5386     0.4852 </r>
       <r>    -1.6878     0.5578     0.5342 </r>
       <r>    -1.6000     0.5574     0.5831 </r>
       <r>    -1.5122     0.5722     0.6334 </r>
       <r>    -1.4244     0.6117     0.6870 </r>
       <r>    -1.3367     0.6326     0.7426 </r>
       <r>    -1.2489     0.6257     0.7975 </r>
       <r>    -1.1611     0.6301     0.8528 </r>
       <r>    -1.0733     0.6599     0.9107 </r>
       <r>    -0.9856     0.6931     0.9716 </r>
       <r>    -0.8978     0.7101     1.0339 </r>
       <r>    -0.8100     0.7054     1.0958 </r>
       <r>    -0.7223     0.6937     1.1567 </r>
       <r>    -0.6345     0.7145     1.2194 </r>
       <r>    -0.5467     0.7722     1.2872 </r>
       <r>    -0.4589     0.8024     1.3576 </r>
       <r>    -0.3712     0.7737     1.4255 </r>
       <r>    -0.2834     0.7464     1.4910 </r>
       <r>    -0.1956     0.7772     1.5593 </r>
       <r>    -0.1078     0.8324     1.6323 </r>
       <r>    -0.0201     0.8551     1.7074 </r>
       <r>     0.0677     0.8531     1.7823 </r>
       <r>     0.1555     0.8496     1.8568 </r>
       <r>     0.2432     0.8437     1.9309 </r>
       <r>     0.3310     0.8451     2.0051 </r>
       <r>     0.4188     0.8732     2.0817 </r>
       <r>     0.5066     0.9249     2.1629 </r>
       <r>     0.5943     0.9616     2.2473 </r>
       <r>     0.6821     0.9468     2.3304 </r>
       <r>     0.7699     0.8992     2.4093 </r>
       <r>     0.8577     0.8792     2.4865 </r>
       <r>     0.9454     0.9277     2.5679 </r>
       <r>     1.0332     1.0121     2.6568 </r>
       <r>     1.1210     1.0463     2.7486 </r>
       <r>     1.2088     1.0070     2.8370 </r>
       <r>     1.2965     0.9674     2.9219 </r>
       <r>     1.3843     0.9776     3.0077 </r>
       <r>     1.4721     1.0069     3.0961 </r>
       <r>     1.5598     1.0262     3.1862 </r>
       <r>     1.6476     1.0473     3.2781 </r>
       <r>     1.7354     1.0757     3.3725 </r>
       <r>     1.8232     1.1023     3.4692 </r>
       <r>     1.9109     1.1110     3.5668 </r>
       <r>     1.9987     1.0803     3.6616 </r>
       <r>     2.0865     1.0312     3.7521 </r>
       <r>     2.1743     1.0353     3.8430 </r>
       <r>     2.2620     1.1138     3.9407 </r>
       <r>     2.3498     1.1920     4.0454 </r>
       <r>     2.4376     1.2112     4.1517 </r>
       <r>     2.5253     1.1857     4.2557 </r>
       <r>     2.6131     1.1381     4.3556 </r>
       <r>     2.7009     1.0968     4.4519 </r>
       <r>     2.7887     1.1124     4.5496 </r>
       <r>     2.8764     1.1871     4.6537 </r>
       <r>     2.9642     1.2505     4.7635 </r>
       <r>     3.0520     1.2580     4.8739 </r>
       <r>     3.1398     1.2402     4.9828 </r>
       <r>     3.2275     1.2350     5.0912 </r>
       <r>     3.3153     1.2461     5.2006 </r>
       <r>     3.4031     1.2585     5.3110 </r>
       <r>     3.4908     1.2525     5.4210 </r>
       <r>     3.5786     1.2316     5.5291 </r>
       <r>     3.6664     1.2334     5.6373 </r>
       <r>     3.7542     1.2852     5.7501 </r>
       <r>     3.8419     1.3544     5.8690 </r>
       <r>     3.9297     1.3765     5.9898 </r>
       <r>     4.0175     1.3387     6.1073 </r>
       <r>     4.1053     1.2841     6.2200 </r>
       <r>     4.1930     1.2515     6.3299 </r>
       <r>     4.2808     1.2675     6.4411 </r>
       <r>     4.3686     1.3420     6.5589 </r>
       <r>     4.4564     1.4341     6.6848 </r>
       <r>     4.5441     1.4813     6.8148 </r>
       <r>     4.6319     1.4543     6.9425 </r>
       <r>     4.7197     1.3815     7.0637 </r>
       <r>     4.8074     1.3428     7.1816 </r>
       <r>     4.8952     1.3895     7.3035 </r>
       <r>     4.9830     1.4832     7.4337 </r>
       <r>     5.0708     1.5543     7.5702 </r>
       <r>     5.1585     1.5772     7.7086 </r>
       <r>     5.2463     1.5578     7.8453 </r>
       <r>     5.3341     1.5065     7.9776 </r>
       <r>     5.4219     1.4692     8.1065 </r>
       <r>     5.5096     1.4923     8.2375 </r>
       <r>     5.5974     1.5386     8.3725 </r>
       <r>     5.6852     1.5288     8.5067 </r>
       <r>     5.7729     1.4621     8.6351 </r>
       <r>     5.8607     1.4100     8.7588 </r>
       <r>     5.9485     1.3996     8.8817 </r>
       <r>     6.0363     1.4009     9.0046 </r>
       <r>     6.1240     1.3999     9.1275 </r>
       <r>     6.2118     1.4066     9.2510 </r>
       <r>     6.2996     1.4068     9.3745 </r>
       <r>     6.3874     1.3791     9.4955 </r>
       <r>     6.4751     1.3613     9.6150 </r>
       <r>     6.5629     1.4003     9.7379 </r>
       <r>     6.6507     1.4694     9.8669 </r>
       <r>     6.7384     1.5237    10.0006 </r>
       <r>     6.8262     1.5562    10.1372 </r>
       <r>     6.9140     1.5628    10.2744 </r>
       <r>     7.0018     1.5342    10.4090 </r>
       <r>     7.0895     1.4995    10.5406 </r>
       <r>     7.1773     1.5156    10.6737 </r>
       <r>     7.2651     1.5789    10.8123 </r>
       <r>     7.3529     1.6115    10.9537 </r>
       <r>     7.4406     1.5752    11.0920 </r>
       <r>     7.5284     1.5179    11.2252 </r>
       <r>     7.6162     1.5067    11.3575 </r>
       <r>     7.7040     1.5601    11.4944 </r>
       <r>     7.7917     1.6107    11.6358 </r>
       <r>     7.8795     1.5726    11.7738 </r>
       <r>     7.9673     1.4740    11.9032 </r>
       <r>     8.0550     1.4392    12.0295 </r>
       <r>     8.1428     1.5357    12.1643 </r>
       <r>     8.2306     1.6934    12.3129 </r>
       <r>     8.3184     1.7994    12.4709 </r>
       <r>     8.4061     1.8238    12.6309 </r>
       <r>     8.4939     1.7876    12.7878 </r>
       <r>     8.5817     1.7008    12.9371 </r>
       <r>     8.6695     1.6198    13.0793 </r>
       <r>     8.7572     1.6058    13.2202 </r>
       <r>     8.8450     1.6100    13.3616 </r>
       <r>     8.9328     1.5850    13.5007 </r>
       <r>     9.0205     1.5918    13.6404 </r>
       <r>     9.1083     1.6676    13.7868 </r>
       <r>     9.1961     1.7603    13.9413 </r>
       <r>     9.2839     1.8195    14.1010 </r>
       <r>     9.3716     1.8314    14.2617 </r>
       <r>     9.4594     1.7971    14.4195 </r>
       <r>     9.5472     1.7302    14.5713 </r>
       <r>     9.6350     1.6633    14.7173 </r>
       <r>     9.7227     1.6411    14.8614 </r>
       <r>     9.8105     1.6670    15.0077 </r>
       <r>     9.8983     1.6852    15.1556 </r>
       <r>     9.9861     1.7048    15.3052 </r>
       <r>    10.0738     1.8143    15.4645 </r>
       <r>    10.1616     1.9711    15.6375 </r>
       <r>    10.2494     1.9919    15.8123 </r>
       <r>    10.3371     1.8316    15.9731 </r>
       <r>    10.4249     1.6630    16.1191 </r>
       <r>    10.5127     1.6545    16.2643 </r>
       <r>    10.6005     1.8012    16.4224 </r>
       <r>    10.6882     1.9562    16.5941 </r>
       <r>    10.7760     1.9793    16.7678 </r>
       <r>    10.8638     1.8676    16.9317 </r>
       <r>    10.9516     1.7494    17.0853 </r>
       <r>    11.0393     1.7477    17.2387 </r>
       <r>    11.1271     1.8348    17.3997 </r>
       <r>    11.2149     1.8899    17.5656 </r>
       <r>    11.3026     1.8978    17.7322 </r>
       <r>    11.3904     1.9411    17.9026 </r>
       <r>    11.4782     2.0089    18.0789 </r>
       <r>    11.5660     2.0172    18.2559 </r>
       <r>    11.6537     1.9846    18.4301 </r>
       <r>    11.7415     1.9687    18.6029 </r>
       <r>    11.8293     1.9226    18.7717 </r>
       <r>    11.9171     1.8236    18.9318 </r>
       <r>    12.0048     1.7784    19.0878 </r>
       <r>    12.0926     1.8520    19.2504 </r>
       <r>    12.1804     1.9752    19.4238 </r>
       <r>    12.2681     2.0778    19.6061 </r>
       <r>    12.3559     2.1528    19.7951 </r>
       <r>    12.4437     2.1749    19.9860 </r>
       <r>    12.5315     2.1102    20.1712 </r>
       <r>    12.6192     2.0073    20.3474 </r>
       <r>    12.7070     1.9488    20.5184 </r>
       <r>    12.7948     1.9626    20.6907 </r>
       <r>    12.8826     2.0324    20.8691 </r>
       <r>    12.9703     2.1109    21.0544 </r>
       <r>    13.0581     2.1412    21.2423 </r>
       <r>    13.1459     2.1098    21.4275 </r>
       <r>    13.2337     2.0736    21.6095 </r>
       <r>    13.3214     2.1179    21.7954 </r>
       <r>    13.4092     2.2459    21.9925 </r>
       <r>    13.4970     2.3577    22.1995 </r>
       <r>    13.5847     2.3799    22.4084 </r>
       <r>    13.6725     2.3287    22.6128 </r>
       <r>    13.7603     2.2610    22.8112 </r>
       <r>    13.8481     2.2356    23.0075 </r>
       <r>    13.9358     2.2731    23.2070 </r>
       <r>    14.0236     2.3327    23.4117 </r>
       <r>    14.1114     2.3470    23.6177 </r>
       <r>    14.1992     2.2816    23.8180 </r>
       <r>    14.2869     2.1814    24.0095 </r>
       <r>    14.3747     2.1269    24.1961 </r>
       <r>    14.4625     2.1229    24.3825 </r>
       <r>    14.5502     2.1039    24.5671 </r>
       <r>    14.6380     2.0513    24.7472 </r>
       <r>    14.7258     2.0305    24.9254 </r>
       <r>    14.8136     2.0830    25.1082 </r>
       <r>    14.9013     2.1329    25.2955 </r>
       <r>    14.9891     2.0632    25.4765 </r>
       <r>    15.0769     1.8686    25.6406 </r>
       <r>    15.1647     1.6735    25.7874 </r>
       <r>    15.2524     1.5903    25.9270 </r>
       <r>    15.3402     1.6050    26.0679 </r>
       <r>    15.4280     1.6231    26.2104 </r>
       <r>    15.5158     1.5650    26.3477 </r>
       <r>    15.6035     1.4395    26.4741 </r>
       <r>    15.6913     1.3387    26.5916 </r>
       <r>    15.7791     1.2873    26.7046 </r>
       <r>    15.8668     1.1964    26.8096 </r>
       <r>    15.9546     1.0384    26.9007 </r>
       <r>    16.0424     0.9078    26.9804 </r>
       <r>    16.1302     0.8627    27.0561 </r>
       <r>    16.2179     0.8534    27.1310 </r>
       <r>    16.3057     0.8245    27.2034 </r>
       <r>    16.3935     0.7710    27.2711 </r>
       <r>    16.4813     0.7086    27.3333 </r>
       <r>    16.5690     0.6528    27.3906 </r>
       <r>    16.6568     0.6116    27.4443 </r>
       <r>    16.7446     0.5784    27.4950 </r>
       <r>    16.8323     0.5362    27.5421 </r>
       <r>    16.9201     0.4810    27.5843 </r>
       <r>    17.0079     0.4317    27.6222 </r>
       <r>    17.0957     0.4119    27.6584 </r>
       <r>    17.1834     0.4197    27.6952 </r>
       <r>    17.2712     0.4212    27.7322 </r>
       <r>    17.3590     0.3888    27.7663 </r>
       <r>    17.4468     0.3357    27.7958 </r>
       <r>    17.5345     0.2936    27.8215 </r>
       <r>    17.6223     0.2672    27.8450 </r>
       <r>    17.7101     0.2414    27.8662 </r>
       <r>    17.7978     0.2151    27.8850 </r>
       <r>    17.8856     0.1954    27.9022 </r>
       <r>    17.9734     0.1770    27.9177 </r>
       <r>    18.0612     0.1533    27.9312 </r>
       <r>    18.1489     0.1305    27.9426 </r>
       <r>    18.2367     0.1140    27.9527 </r>
       <r>    18.3245     0.1000    27.9614 </r>
       <r>    18.4123     0.0871    27.9691 </r>
       <r>    18.5000     0.0781    27.9759 </r>
       <r>    18.5878     0.0705    27.9821 </r>
       <r>    18.6756     0.0572    27.9871 </r>
       <r>    18.7634     0.0400    27.9907 </r>
       <r>    18.8511     0.0292    27.9932 </r>
       <r>    18.9389     0.0250    27.9954 </r>
       <r>    19.0267     0.0196    27.9971 </r>
       <r>    19.1144     0.0131    27.9983 </r>
       <r>    19.2022     0.0095    27.9991 </r>
       <r>    19.2900     0.0071    27.9997 </r>
       <r>    19.3778     0.0035    28.0000 </r>
       <r>    19.4655     0.0005    28.0001 </r>
       <r>    19.5533    -0.0005    28.0000 </r>
       <r>    19.6411    -0.0003    28.0000 </r>
       <r>    19.7289    -0.0001    28.0000 </r>
       <r>    19.8166    -0.0000    28.0000 </r>
       <r>    19.9044    -0.0000    28.0000 </r>
       <r>    19.9922    -0.0000    28.0000 </r>
       <r>    20.0799    -0.0000    28.0000 </r>
       <r>    20.1677    -0.0000    28.0000 </r>
       <r>    20.2555    -0.0000    28.0000 </r>
       <r>    20.3433    -0.0000    28.0000 </r>
       <r>    20.4310    -0.0000    28.0000 </r>
       <r>    20.5188    -0.0000    28.0000 </r>
       <r>    20.6066     0.0000    28.0000 </r>
       <r>    20.6944     0.0000    28.0000 </r>
       <r>    20.7821     0.0000    28.0000 </r>
       <r>    20.8699     0.0000    28.0000 </r>
       <r>    20.9577     0.0000    28.0000 </r>
       <r>    21.0454     0.0000    28.0000 </r>
       <r>    21.1332     0.0000    28.0000 </r>
       <r>    21.2210     0.0000    28.0000 </r>
      </set>
     </set>
    </array>
   </total>
  </dos>
 </calculation>
 <structure name="finalpos" >
  <crystal>
   <varray name="basis" >
    <v>       4.03892969       0.00000000       0.00000000 </v>
    <v>      -0.00000000       4.03892969       0.00000000 </v>
    <v>      -0.08077859       0.00000000       4.03812183 </v>
   </varray>
   <i name="volume">     65.87369183 </i>
   <varray name="rec_basis" >
    <v>       0.24759035       0.00000000       0.00495280 </v>
    <v>       0.00000000       0.24759035      -0.00000000 </v>
    <v>       0.00000000      -0.00000000       0.24763988 </v>
   </varray>
  </crystal>
  <varray name="positions" >
   <v>       0.00000000       0.00000000       0.00000000 </v>
   <v>       0.00000000       0.50000000       0.50000000 </v>
   <v>       0.50000000       0.00000000       0.50000000 </v>
   <v>       0.50000000       0.50000000       0.00000000 </v>
  </varray>
 </structure>
</modeling>
