 running   14 mpi-ranks, with    2 threads/rank, on    1 nodes
 distrk:  each k-point on   14 cores,    1 groups
 distr:  one band on    1 cores,   14 groups
 vasp.6.4.2 20Jul23 (build Apr 22 2024 22:35:45) complex                         
 POSCAR found type information on POSCAR Al
 POSCAR found :  1 types and       4 ions
 scaLAPACK will be used
 -----------------------------------------------------------------------------
|                                                                             |
|               ----> ADVICE to this user running VASP <----                  |
|                                                                             |
|     You have a (more or less) 'small supercell' and for smaller cells       |
|     it is recommended to use the reciprocal-space projection scheme!        |
|     The real-space optimization is not efficient for small cells and it     |
|     is also less accurate ...                                               |
|     Therefore, set LREAL=.FALSE. in the INCAR file.                         |
|                                                                             |
 -----------------------------------------------------------------------------

 LDA part: xc-table for Pade appr. of Perdew
 POSCAR, INCAR and KPOINTS ok, starting setup
 FFT: planning ... GRIDC
 FFT: planning ... GRID_SOFT
 FFT: planning ... GRID
 WAVECAR not read
 entering main loop
       N       E                     dE             d eps       ncg     rms          rms(c)
DAV:   1    -0.249633855902E+01   -0.24963E+01   -0.38242E+03 15512   0.522E+02
DAV:   2    -0.150029696578E+02   -0.12507E+02   -0.12179E+02 22708   0.476E+01
DAV:   3    -0.150739449266E+02   -0.70975E-01   -0.70798E-01 20006   0.484E+00
DAV:   4    -0.150741095811E+02   -0.16465E-03   -0.16465E-03 25746   0.230E-01
DAV:   5    -0.150741097105E+02   -0.12936E-06   -0.13035E-06 20384   0.420E-03    0.258E+00
RMM:   6    -0.150223933979E+02    0.51716E-01   -0.55587E-03 15400   0.433E-01    0.151E+00
RMM:   7    -0.149845717278E+02    0.37822E-01   -0.16917E-02 15400   0.724E-01    0.224E-01
RMM:   8    -0.149845405468E+02    0.31181E-04   -0.57200E-04 15400   0.159E-01    0.278E-02
RMM:   9    -0.149845462231E+02   -0.56763E-05   -0.98909E-05 15400   0.686E-02    0.230E-02
RMM:  10    -0.149845473466E+02   -0.11234E-05   -0.22367E-05 15400   0.335E-02    0.213E-02
RMM:  11    -0.149845427470E+02    0.45996E-05   -0.44937E-06 15204   0.129E-02    0.463E-03
RMM:  12    -0.149845426997E+02    0.47267E-07   -0.12046E-06 11473   0.825E-03
   1 F= -.14984543E+02 E0= -.14985142E+02  d E =-.149845E+02
 curvature:   0.00 expect dE= 0.000E+00 dE for cont linesearch  0.000E+00
 trial: gam= 0.00000 g(F)=  0.506E-63 g(S)=  0.000E+00 ort = 0.000E+00 (trialstep = 0.100E+01)
 search vector abs. value=  0.100E-09
 reached required accuracy - stopping structural energy minimisation
