ITEM: TIMESTEP
0
ITEM: NUMBER OF ATOMS
4
ITEM: BOX BOUNDS xy xz yz pp pp pp
0.0000000000000000e+00 4.0369359481000000e+00 0.0000000000000000e+00
0.0000000000000000e+00 4.0369359481000000e+00 0.0000000000000000e+00
0.0000000000000000e+00 4.0167005527999997e+00 0.0000000000000000e+00
ITEM: ATOMS id type xs ys zs fx fy fz
1 1 0 0 0 2.40252e-10 2.40252e-10 3.34605e-18
2 1 0 0.5 0.5 2.40252e-10 -2.40252e-10 1.01594e-17
4 1 0.5 0 0.5 -2.40252e-10 2.40252e-10 -2.55427e-17
3 1 0.5 0.5 0 -2.40252e-10 -2.40252e-10 3.57949e-17
ITEM: TIMESTEP
1
ITEM: NUMBER OF ATOMS
4
ITEM: BOX BOUNDS xy xz yz pp pp pp
0.0000000000000000e+00 4.0369359481000000e+00 0.0000000000000000e+00
0.0000000000000000e+00 4.0369359481000000e+00 0.0000000000000000e+00
0.0000000000000000e+00 4.0167005527999997e+00 0.0000000000000000e+00
ITEM: ATOMS id type xs ys zs fx fy fz
1 1 6.19283e-12 6.19283e-12 8.66836e-20 -3.05311e-16 -2.90444e-16 1.73893e-17
2 1 6.19283e-12 0.5 0.5 -3.33067e-16 3.4544e-16 5.32734e-17
4 1 0.5 6.19283e-12 0.5 4.30211e-16 -3.16275e-16 -6.58807e-18
3 1 0.5 0.5 9.27311e-19 2.77556e-16 3.30275e-16 3.85842e-17
