
6 atoms
1 atom types
   0.0000000000    2.8545447841 xlo xhi
   0.0000000000    2.8545447841 ylo yhi
   0.0000000000   24.2216156886 zlo zhi
  -0.0000000000    0.0100000000    0.0000000000 xy xz yz

Atoms # atomic

     1      1    2.8632947841    2.8545447841   21.1939137276
     2      1    1.4368557254    1.4272723921   23.2123817016
     3      1    2.8616281174    2.8545447841   17.1569777795
     4      1    1.4351890587    1.4272723921   19.1754457535
     5      1    2.8599614508    2.8545447841   13.1200418314
     6      1    1.4335223920    1.4272723921   15.1385098054
