ITEM: TIMESTEP
0
ITEM: NUMBER OF ATOMS
6
ITEM: BOX BOUNDS xy xz yz pp pp pp
0.0000000000000000e+00 2.8645447840999996e+00 -0.0000000000000000e+00
0.0000000000000000e+00 2.8545447840999998e+00 1.0000000000000000e-02
0.0000000000000000e+00 2.4221615688600000e+01 0.0000000000000000e+00
ITEM: ATOMS id type xs ys zs fx fy fz
5 1 1.16664e-11 0 0.541667 0.000787367 5.26306e-11 -0.01193
6 1 0.5 0.5 0.625 -0.000144337 -1.00274e-10 -0.0294725
3 1 1 0 0.708333 3.98481e-05 9.59637e-11 -0.0542059
4 1 0.5 0.5 0.791667 -3.98481e-05 -9.59636e-11 0.0542059
1 1 1 0 0.875 0.000144337 1.00274e-10 0.0294725
2 1 0.5 0.5 0.958333 -0.000787367 -5.26308e-11 0.01193
