 running   14 mpi-ranks, with    2 threads/rank, on    1 nodes
 distrk:  each k-point on   14 cores,    1 groups
 distr:  one band on    1 cores,   14 groups
 vasp.6.4.2 20Jul23 (build Apr 22 2024 22:35:45) complex                         
 POSCAR found type information on POSCAR Al
 POSCAR found :  1 types and       4 ions
 scaLAPACK will be used
 -----------------------------------------------------------------------------
|                                                                             |
|               ----> ADVICE to this user running VASP <----                  |
|                                                                             |
|     You have a (more or less) 'small supercell' and for smaller cells       |
|     it is recommended to use the reciprocal-space projection scheme!        |
|     The real-space optimization is not efficient for small cells and it     |
|     is also less accurate ...                                               |
|     Therefore, set LREAL=.FALSE. in the INCAR file.                         |
|                                                                             |
 -----------------------------------------------------------------------------

 LDA part: xc-table for Pade appr. of Perdew
 POSCAR, INCAR and KPOINTS ok, starting setup
 FFT: planning ... GRIDC
 FFT: planning ... GRID_SOFT
 FFT: planning ... GRID
 WAVECAR not read
 entering main loop
       N       E                     dE             d eps       ncg     rms          rms(c)
DAV:   1    -0.231646143042E+01   -0.23165E+01   -0.38478E+03 30954   0.522E+02
DAV:   2    -0.150042302645E+02   -0.12688E+02   -0.12339E+02 45206   0.481E+01
DAV:   3    -0.150763101556E+02   -0.72080E-01   -0.71946E-01 40390   0.490E+00
DAV:   4    -0.150764752313E+02   -0.16508E-03   -0.16507E-03 50918   0.229E-01
DAV:   5    -0.150764753440E+02   -0.11274E-06   -0.11278E-06 41286   0.430E-03    0.261E+00
RMM:   6    -0.150244017200E+02    0.52074E-01   -0.53902E-03 30800   0.427E-01    0.153E+00
RMM:   7    -0.149863046197E+02    0.38097E-01   -0.16470E-02 30800   0.714E-01    0.225E-01
RMM:   8    -0.149862746708E+02    0.29949E-04   -0.57862E-04 30800   0.160E-01    0.279E-02
RMM:   9    -0.149862803979E+02   -0.57271E-05   -0.99029E-05 30800   0.690E-02    0.233E-02
RMM:  10    -0.149862813960E+02   -0.99806E-06   -0.22194E-05 30800   0.332E-02    0.225E-02
RMM:  11    -0.149862769440E+02    0.44520E-05   -0.43793E-06 30324   0.128E-02    0.525E-03
RMM:  12    -0.149862768434E+02    0.10059E-06   -0.11722E-06 22888   0.812E-03
   1 F= -.14986277E+02 E0= -.14986999E+02  d E =-.149863E+02
 curvature:   0.00 expect dE= 0.000E+00 dE for cont linesearch  0.000E+00
 trial: gam= 0.00000 g(F)=  0.491E-62 g(S)=  0.000E+00 ort = 0.000E+00 (trialstep = 0.100E+01)
 search vector abs. value=  0.100E-09
 reached required accuracy - stopping structural energy minimisation
