 vasp.6.4.2 20Jul23 (build Apr 22 2024 22:35:45) complex                         
 executed on             LinuxGNU date 2024.05.26  15:39:50
 running   14 mpi-ranks, with    2 threads/rank, on    1 nodes
 distrk:  each k-point on   14 cores,    1 groups
 distr:  one band on NCORE=   1 cores,   14 groups


--------------------------------------------------------------------------------------------------------


 INCAR:
   ALGO = Fast
   EDIFF = 1e-06
   ENCUT = 400
   IBRION = 2
   ISIF = 4
   ISMEAR = 1
   KSPACING = 0.08
   LCHARG = False
   LREAL = Auto
   LWAVE = False
   NELM = 60
   NELMIN = 4
   NSW = 100
   PREC = Accurate
   SIGMA = 0.2
   SYSTEM = Al fcc relaxation

 POTCAR:    PAW_PBE Al 04Jan2001                  
 POTCAR:    PAW_PBE Al 04Jan2001                  
   SHA256 =  17880443556af62b473fe41b62a467bd001ad55d2cabe504a3f22e34d4e9db96 Al/POTCAR             
   COPYR  = (c) Copyright 04Jan2001 Georg Kresse                                                    
   COPYR  = This file is part of the software VASP. Any use, copying, and all other rights are regul
   COPYR  = If you do not have a valid VASP license, you may not use, copy or distribute this file. 
   VRHFIN =Al: s2p1                                                                                 
   LEXCH  = PE                                                                                      
   EATOM  =    53.5387 eV,    3.9350 Ry                                                             
                                                                                                    
   TITEL  = PAW_PBE Al 04Jan2001                                                                    
   LULTRA =        F    use ultrasoft PP ?                                                          
   IUNSCR =        1    unscreen: 0-lin 1-nonlin 2-no                                               
   RPACOR =    1.500    partial core radius                                                         
   POMASS =   26.981; ZVAL   =    3.000    mass and valenz                                          
   RCORE  =    1.900    outmost cutoff radius                                                       
   RWIGS  =    2.650; RWIGS  =    1.402    wigner-seitz radius (au A)                               
   ENMAX  =  240.300; ENMIN  =  180.225 eV                                                          
   ICORE  =        2    local potential                                                             
   LCOR   =        T    correct aug charges                                                         
   LPAW   =        T    paw PP                                                                      
   EAUG   =  291.052                                                                                
   DEXC   =    0.000                                                                                
   RMAX   =    1.939    core radius for proj-oper                                                   
   RAUG   =    1.300    factor for augmentation sphere                                              
   RDEP   =    1.966    radius for radial grids                                                     
   RDEPT  =    1.856    core radius for aug-charge                                                  
                                                                                                    
   Atomic configuration                                                                             
    6 entries                                                                                       
     n  l   j            E        occ.                                                              
     1  0  0.50     -1511.1048   2.0000                                                             
     2  0  0.50      -108.1629   2.0000                                                             
     2  1  1.50       -69.6402   6.0000                                                             
     3  0  0.50        -7.7528   2.0000                                                             
     3  1  1.50        -2.7121   1.0000                                                             
     3  2  2.50        -2.7212   0.0000                                                             
   Description                                                                                      
     l       E           TYP  RCUT    TYP  RCUT                                                     
     0     -7.7528455     23  1.900                                                                 
     0     -3.3096929     23  1.900                                                                 
     1     -2.7120682     23  1.900                                                                 
     1     13.6058260     23  1.900                                                                 
     2     -2.7211652      7  1.900                                                                 
  local pseudopotential read in
  partial core-charges read in
  partial kinetic energy density read in
  atomic valenz-charges read in
  non local Contribution for L=           0  read in
    real space projection operators read in
  non local Contribution for L=           0  read in
    real space projection operators read in
  non local Contribution for L=           1  read in
    real space projection operators read in
  non local Contribution for L=           1  read in
    real space projection operators read in
    PAW grid and wavefunctions read in

   number of l-projection  operators is LMAX  =           4
   number of lm-projection operators is LMMAX =           8

 -----------------------------------------------------------------------------
|                                                                             |
|               ----> ADVICE to this user running VASP <----                  |
|                                                                             |
|     You have a (more or less) 'small supercell' and for smaller cells       |
|     it is recommended to use the reciprocal-space projection scheme!        |
|     The real-space optimization is not efficient for small cells and it     |
|     is also less accurate ...                                               |
|     Therefore, set LREAL=.FALSE. in the INCAR file.                         |
|                                                                             |
 -----------------------------------------------------------------------------

 Optimization of the real space projectors (new method)

 maximal supplied QI-value         = 19.84
 optimisation between [QCUT,QGAM] = [ 10.12, 20.44] = [ 28.68,116.96] Ry 
 Optimized for a Real-space Cutoff    1.38 Angstroem

   l    n(q)    QCUT    max X(q) W(low)/X(q) W(high)/X(q)  e(spline) 
   0      8    10.119   176.870    0.39E-04    0.93E-04    0.54E-07
   0      8    10.119   105.762    0.37E-04    0.91E-04    0.53E-07
   1      8    10.119    55.370    0.18E-03    0.13E-03    0.19E-06
   1      8    10.119    20.208    0.17E-03    0.12E-03    0.18E-06
  PAW_PBE Al 04Jan2001                  :
 energy of atom  1       EATOM=  -53.5387
 kinetic energy error for atom=    0.0005 (will be added to EATOM!!)


 POSCAR: Al4
  positions in direct lattice
  velocities in cartesian coordinates
 exchange correlation table for  LEXCH =        8
   RHO(1)=    0.500       N(1)  =     2000
   RHO(2)=  100.500       N(2)  =     4000



--------------------------------------------------------------------------------------------------------


 ion  position               nearest neighbor table
   1  0.000  0.000  0.000-   2 2.54   3 2.54   4 2.54   2 2.54   3 2.54   2 2.54   4 2.54   2 2.54
                             3 2.54   4 2.54   3 2.54   4 2.54
   2  0.000  0.500  0.500-   1 2.54   3 2.54   4 2.54   1 2.54   4 2.54   1 2.54   3 2.54   1 2.54
                             3 2.54   4 2.54   4 2.54   3 2.54
   3  0.500  0.000  0.500-   1 2.54   2 2.54   4 2.54   1 2.54   4 2.54   2 2.54   4 2.54   4 2.54
                             1 2.54   2 2.54   1 2.54   2 2.54
   4  0.500  0.500  0.000-   1 2.54   2 2.54   3 2.54   2 2.54   3 2.54   1 2.54   3 2.54   3 2.54
                             1 2.54   2 2.54   2 2.54   1 2.54

  LATTYP: Found a simple cubic cell.
 ALAT       =     3.5861818373
  
  Lattice vectors:
  
 A1 = (   3.5861818373,   0.0000000000,   0.0000000000)
 A2 = (  -0.0000000000,   3.5861818373,   0.0000000000)
 A3 = (   0.0000000000,   0.0000000000,   3.5861818373)


Analysis of symmetry for initial positions (statically):
=====================================================================
 Subroutine PRICEL returns following result:
 
  LATTYP: Found a face centered cubic cell.
 ALAT       =     3.5861818373
  
  Lattice vectors:
  
 A1 = (   1.7930909187,  -1.7930909187,   0.0000000000)
 A2 = (   1.7930909187,   0.0000000000,   1.7930909187)
 A3 = (   0.0000000000,  -1.7930909187,   1.7930909187)
 
   4 primitive cells build up your supercell.
 

 Routine SETGRP: Setting up the symmetry group for a 
 simple cubic supercell.


 Subroutine GETGRP returns: Found 48 space group operations
 (whereof 48 operations were pure point group operations)
 out of a pool of 48 trial point group operations.


The static configuration has the point symmetry O_h .


Analysis of symmetry for dynamics (positions and initial velocities):
=====================================================================
 Subroutine PRICEL returns following result:
 
  LATTYP: Found a face centered cubic cell.
 ALAT       =     3.5861818373
  
  Lattice vectors:
  
 A1 = (   1.7930909187,  -1.7930909187,   0.0000000000)
 A2 = (   1.7930909187,   0.0000000000,   1.7930909187)
 A3 = (   0.0000000000,  -1.7930909187,   1.7930909187)
 
   4 primitive cells build up your supercell.
 

 Routine SETGRP: Setting up the symmetry group for a 
 simple cubic supercell.


 Subroutine GETGRP returns: Found 48 space group operations
 (whereof 48 operations were pure point group operations)
 out of a pool of 48 trial point group operations.


The dynamic configuration has the point symmetry O_h .


 Subroutine INISYM returns: Found 48 space group operations
 (whereof 48 operations are pure point group operations),
 and found     4 'primitive' translations


----------------------------------------------------------------------------------------

                                     Primitive cell                                     

  volume of cell :      11.5302

  direct lattice vectors                    reciprocal lattice vectors
     1.793090919 -1.793090919  0.000000000     0.278848102 -0.278848102 -0.278848102
     1.793090919  0.000000000  1.793090919     0.278848102  0.278848102  0.278848102
     0.000000000 -1.793090919  1.793090919    -0.278848102 -0.278848102  0.278848102

  length of vectors
     2.535813496  2.535813496  2.535813496     0.482979081  0.482979081  0.482979081

  position of ions in fractional coordinates (direct lattice)
     0.000000000  0.000000000  0.000000000

  ion indices of the primitive-cell ions
   primitive index   ion index
                 1           1

----------------------------------------------------------------------------------------



 KPOINTS: Automatic kpoint scheme                 

Automatic generation of k-mesh.
 Grid dimensions read from file:
 generate k-points for:   22   22   22

 Generating k-lattice:

  Cartesian coordinates                     Fractional coordinates (reciprocal lattice)
     0.012674914  0.000000000 -0.000000000     0.045454545  0.000000000  0.000000000
     0.000000000  0.012674914  0.000000000     0.000000000  0.045454545  0.000000000
    -0.000000000 -0.000000000  0.012674914    -0.000000000 -0.000000000  0.045454545

  Length of vectors
     0.012674914  0.012674914  0.012674914

  Shift w.r.t. Gamma in fractional coordinates (k-lattice)
     0.500000000  0.500000000  0.500000000

 
 Subroutine IBZKPT returns following result:
 ===========================================
 
 Found    286 irreducible k-points:
 
 Following reciprocal coordinates:
            Coordinates               Weight
  0.022727  0.022727  0.022727      8.000000
  0.068182  0.022727  0.022727     24.000000
  0.113636  0.022727  0.022727     24.000000
  0.159091  0.022727  0.022727     24.000000
  0.204545  0.022727  0.022727     24.000000
  0.250000  0.022727  0.022727     24.000000
  0.295455  0.022727  0.022727     24.000000
  0.340909  0.022727  0.022727     24.000000
  0.386364  0.022727  0.022727     24.000000
  0.431818  0.022727  0.022727     24.000000
  0.477273  0.022727  0.022727     24.000000
  0.068182  0.068182  0.022727     24.000000
  0.113636  0.068182  0.022727     48.000000
  0.159091  0.068182  0.022727     48.000000
  0.204545  0.068182  0.022727     48.000000
  0.250000  0.068182  0.022727     48.000000
  0.295455  0.068182  0.022727     48.000000
  0.340909  0.068182  0.022727     48.000000
  0.386364  0.068182  0.022727     48.000000
  0.431818  0.068182  0.022727     48.000000
  0.477273  0.068182  0.022727     48.000000
  0.113636  0.113636  0.022727     24.000000
  0.159091  0.113636  0.022727     48.000000
  0.204545  0.113636  0.022727     48.000000
  0.250000  0.113636  0.022727     48.000000
  0.295455  0.113636  0.022727     48.000000
  0.340909  0.113636  0.022727     48.000000
  0.386364  0.113636  0.022727     48.000000
  0.431818  0.113636  0.022727     48.000000
  0.477273  0.113636  0.022727     48.000000
  0.159091  0.159091  0.022727     24.000000
  0.204545  0.159091  0.022727     48.000000
  0.250000  0.159091  0.022727     48.000000
  0.295455  0.159091  0.022727     48.000000
  0.340909  0.159091  0.022727     48.000000
  0.386364  0.159091  0.022727     48.000000
  0.431818  0.159091  0.022727     48.000000
  0.477273  0.159091  0.022727     48.000000
  0.204545  0.204545  0.022727     24.000000
  0.250000  0.204545  0.022727     48.000000
  0.295455  0.204545  0.022727     48.000000
  0.340909  0.204545  0.022727     48.000000
  0.386364  0.204545  0.022727     48.000000
  0.431818  0.204545  0.022727     48.000000
  0.477273  0.204545  0.022727     48.000000
  0.250000  0.250000  0.022727     24.000000
  0.295455  0.250000  0.022727     48.000000
  0.340909  0.250000  0.022727     48.000000
  0.386364  0.250000  0.022727     48.000000
  0.431818  0.250000  0.022727     48.000000
  0.477273  0.250000  0.022727     48.000000
  0.295455  0.295455  0.022727     24.000000
  0.340909  0.295455  0.022727     48.000000
  0.386364  0.295455  0.022727     48.000000
  0.431818  0.295455  0.022727     48.000000
  0.477273  0.295455  0.022727     48.000000
  0.340909  0.340909  0.022727     24.000000
  0.386364  0.340909  0.022727     48.000000
  0.431818  0.340909  0.022727     48.000000
  0.477273  0.340909  0.022727     48.000000
  0.386364  0.386364  0.022727     24.000000
  0.431818  0.386364  0.022727     48.000000
  0.477273  0.386364  0.022727     48.000000
  0.431818  0.431818  0.022727     24.000000
  0.477273  0.431818  0.022727     48.000000
  0.477273  0.477273  0.022727     24.000000
  0.068182  0.068182  0.068182      8.000000
  0.113636  0.068182  0.068182     24.000000
  0.159091  0.068182  0.068182     24.000000
  0.204545  0.068182  0.068182     24.000000
  0.250000  0.068182  0.068182     24.000000
  0.295455  0.068182  0.068182     24.000000
  0.340909  0.068182  0.068182     24.000000
  0.386364  0.068182  0.068182     24.000000
  0.431818  0.068182  0.068182     24.000000
  0.477273  0.068182  0.068182     24.000000
  0.113636  0.113636  0.068182     24.000000
  0.159091  0.113636  0.068182     48.000000
  0.204545  0.113636  0.068182     48.000000
  0.250000  0.113636  0.068182     48.000000
  0.295455  0.113636  0.068182     48.000000
  0.340909  0.113636  0.068182     48.000000
  0.386364  0.113636  0.068182     48.000000
  0.431818  0.113636  0.068182     48.000000
  0.477273  0.113636  0.068182     48.000000
  0.159091  0.159091  0.068182     24.000000
  0.204545  0.159091  0.068182     48.000000
  0.250000  0.159091  0.068182     48.000000
  0.295455  0.159091  0.068182     48.000000
  0.340909  0.159091  0.068182     48.000000
  0.386364  0.159091  0.068182     48.000000
  0.431818  0.159091  0.068182     48.000000
  0.477273  0.159091  0.068182     48.000000
  0.204545  0.204545  0.068182     24.000000
  0.250000  0.204545  0.068182     48.000000
  0.295455  0.204545  0.068182     48.000000
  0.340909  0.204545  0.068182     48.000000
  0.386364  0.204545  0.068182     48.000000
  0.431818  0.204545  0.068182     48.000000
  0.477273  0.204545  0.068182     48.000000
  0.250000  0.250000  0.068182     24.000000
  0.295455  0.250000  0.068182     48.000000
  0.340909  0.250000  0.068182     48.000000
  0.386364  0.250000  0.068182     48.000000
  0.431818  0.250000  0.068182     48.000000
  0.477273  0.250000  0.068182     48.000000
  0.295455  0.295455  0.068182     24.000000
  0.340909  0.295455  0.068182     48.000000
  0.386364  0.295455  0.068182     48.000000
  0.431818  0.295455  0.068182     48.000000
  0.477273  0.295455  0.068182     48.000000
  0.340909  0.340909  0.068182     24.000000
  0.386364  0.340909  0.068182     48.000000
  0.431818  0.340909  0.068182     48.000000
  0.477273  0.340909  0.068182     48.000000
  0.386364  0.386364  0.068182     24.000000
  0.431818  0.386364  0.068182     48.000000
  0.477273  0.386364  0.068182     48.000000
  0.431818  0.431818  0.068182     24.000000
  0.477273  0.431818  0.068182     48.000000
  0.477273  0.477273  0.068182     24.000000
  0.113636  0.113636  0.113636      8.000000
  0.159091  0.113636  0.113636     24.000000
  0.204545  0.113636  0.113636     24.000000
  0.250000  0.113636  0.113636     24.000000
  0.295455  0.113636  0.113636     24.000000
  0.340909  0.113636  0.113636     24.000000
  0.386364  0.113636  0.113636     24.000000
  0.431818  0.113636  0.113636     24.000000
  0.477273  0.113636  0.113636     24.000000
  0.159091  0.159091  0.113636     24.000000
  0.204545  0.159091  0.113636     48.000000
  0.250000  0.159091  0.113636     48.000000
  0.295455  0.159091  0.113636     48.000000
  0.340909  0.159091  0.113636     48.000000
  0.386364  0.159091  0.113636     48.000000
  0.431818  0.159091  0.113636     48.000000
  0.477273  0.159091  0.113636     48.000000
  0.204545  0.204545  0.113636     24.000000
  0.250000  0.204545  0.113636     48.000000
  0.295455  0.204545  0.113636     48.000000
  0.340909  0.204545  0.113636     48.000000
  0.386364  0.204545  0.113636     48.000000
  0.431818  0.204545  0.113636     48.000000
  0.477273  0.204545  0.113636     48.000000
  0.250000  0.250000  0.113636     24.000000
  0.295455  0.250000  0.113636     48.000000
  0.340909  0.250000  0.113636     48.000000
  0.386364  0.250000  0.113636     48.000000
  0.431818  0.250000  0.113636     48.000000
  0.477273  0.250000  0.113636     48.000000
  0.295455  0.295455  0.113636     24.000000
  0.340909  0.295455  0.113636     48.000000
  0.386364  0.295455  0.113636     48.000000
  0.431818  0.295455  0.113636     48.000000
  0.477273  0.295455  0.113636     48.000000
  0.340909  0.340909  0.113636     24.000000
  0.386364  0.340909  0.113636     48.000000
  0.431818  0.340909  0.113636     48.000000
  0.477273  0.340909  0.113636     48.000000
  0.386364  0.386364  0.113636     24.000000
  0.431818  0.386364  0.113636     48.000000
  0.477273  0.386364  0.113636     48.000000
  0.431818  0.431818  0.113636     24.000000
  0.477273  0.431818  0.113636     48.000000
  0.477273  0.477273  0.113636     24.000000
  0.159091  0.159091  0.159091      8.000000
  0.204545  0.159091  0.159091     24.000000
  0.250000  0.159091  0.159091     24.000000
  0.295455  0.159091  0.159091     24.000000
  0.340909  0.159091  0.159091     24.000000
  0.386364  0.159091  0.159091     24.000000
  0.431818  0.159091  0.159091     24.000000
  0.477273  0.159091  0.159091     24.000000
  0.204545  0.204545  0.159091     24.000000
  0.250000  0.204545  0.159091     48.000000
  0.295455  0.204545  0.159091     48.000000
  0.340909  0.204545  0.159091     48.000000
  0.386364  0.204545  0.159091     48.000000
  0.431818  0.204545  0.159091     48.000000
  0.477273  0.204545  0.159091     48.000000
  0.250000  0.250000  0.159091     24.000000
  0.295455  0.250000  0.159091     48.000000
  0.340909  0.250000  0.159091     48.000000
  0.386364  0.250000  0.159091     48.000000
  0.431818  0.250000  0.159091     48.000000
  0.477273  0.250000  0.159091     48.000000
  0.295455  0.295455  0.159091     24.000000
  0.340909  0.295455  0.159091     48.000000
  0.386364  0.295455  0.159091     48.000000
  0.431818  0.295455  0.159091     48.000000
  0.477273  0.295455  0.159091     48.000000
  0.340909  0.340909  0.159091     24.000000
  0.386364  0.340909  0.159091     48.000000
  0.431818  0.340909  0.159091     48.000000
  0.477273  0.340909  0.159091     48.000000
  0.386364  0.386364  0.159091     24.000000
  0.431818  0.386364  0.159091     48.000000
  0.477273  0.386364  0.159091     48.000000
  0.431818  0.431818  0.159091     24.000000
  0.477273  0.431818  0.159091     48.000000
  0.477273  0.477273  0.159091     24.000000
  0.204545  0.204545  0.204545      8.000000
  0.250000  0.204545  0.204545     24.000000
  0.295455  0.204545  0.204545     24.000000
  0.340909  0.204545  0.204545     24.000000
  0.386364  0.204545  0.204545     24.000000
  0.431818  0.204545  0.204545     24.000000
  0.477273  0.204545  0.204545     24.000000
  0.250000  0.250000  0.204545     24.000000
  0.295455  0.250000  0.204545     48.000000
  0.340909  0.250000  0.204545     48.000000
  0.386364  0.250000  0.204545     48.000000
  0.431818  0.250000  0.204545     48.000000
  0.477273  0.250000  0.204545     48.000000
  0.295455  0.295455  0.204545     24.000000
  0.340909  0.295455  0.204545     48.000000
  0.386364  0.295455  0.204545     48.000000
  0.431818  0.295455  0.204545     48.000000
  0.477273  0.295455  0.204545     48.000000
  0.340909  0.340909  0.204545     24.000000
  0.386364  0.340909  0.204545     48.000000
  0.431818  0.340909  0.204545     48.000000
  0.477273  0.340909  0.204545     48.000000
  0.386364  0.386364  0.204545     24.000000
  0.431818  0.386364  0.204545     48.000000
  0.477273  0.386364  0.204545     48.000000
  0.431818  0.431818  0.204545     24.000000
  0.477273  0.431818  0.204545     48.000000
  0.477273  0.477273  0.204545     24.000000
  0.250000  0.250000  0.250000      8.000000
  0.295455  0.250000  0.250000     24.000000
  0.340909  0.250000  0.250000     24.000000
  0.386364  0.250000  0.250000     24.000000
  0.431818  0.250000  0.250000     24.000000
  0.477273  0.250000  0.250000     24.000000
  0.295455  0.295455  0.250000     24.000000
  0.340909  0.295455  0.250000     48.000000
  0.386364  0.295455  0.250000     48.000000
  0.431818  0.295455  0.250000     48.000000
  0.477273  0.295455  0.250000     48.000000
  0.340909  0.340909  0.250000     24.000000
  0.386364  0.340909  0.250000     48.000000
  0.431818  0.340909  0.250000     48.000000
  0.477273  0.340909  0.250000     48.000000
  0.386364  0.386364  0.250000     24.000000
  0.431818  0.386364  0.250000     48.000000
  0.477273  0.386364  0.250000     48.000000
  0.431818  0.431818  0.250000     24.000000
  0.477273  0.431818  0.250000     48.000000
  0.477273  0.477273  0.250000     24.000000
  0.295455  0.295455  0.295455      8.000000
  0.340909  0.295455  0.295455     24.000000
  0.386364  0.295455  0.295455     24.000000
  0.431818  0.295455  0.295455     24.000000
  0.477273  0.295455  0.295455     24.000000
  0.340909  0.340909  0.295455     24.000000
  0.386364  0.340909  0.295455     48.000000
  0.431818  0.340909  0.295455     48.000000
  0.477273  0.340909  0.295455     48.000000
  0.386364  0.386364  0.295455     24.000000
  0.431818  0.386364  0.295455     48.000000
  0.477273  0.386364  0.295455     48.000000
  0.431818  0.431818  0.295455     24.000000
  0.477273  0.431818  0.295455     48.000000
  0.477273  0.477273  0.295455     24.000000
  0.340909  0.340909  0.340909      8.000000
  0.386364  0.340909  0.340909     24.000000
  0.431818  0.340909  0.340909     24.000000
  0.477273  0.340909  0.340909     24.000000
  0.386364  0.386364  0.340909     24.000000
  0.431818  0.386364  0.340909     48.000000
  0.477273  0.386364  0.340909     48.000000
  0.431818  0.431818  0.340909     24.000000
  0.477273  0.431818  0.340909     48.000000
  0.477273  0.477273  0.340909     24.000000
  0.386364  0.386364  0.386364      8.000000
  0.431818  0.386364  0.386364     24.000000
  0.477273  0.386364  0.386364     24.000000
  0.431818  0.431818  0.386364     24.000000
  0.477273  0.431818  0.386364     48.000000
  0.477273  0.477273  0.386364     24.000000
  0.431818  0.431818  0.431818      8.000000
  0.477273  0.431818  0.431818     24.000000
  0.477273  0.477273  0.431818     24.000000
  0.477273  0.477273  0.477273      8.000000
 
 Following cartesian coordinates:
            Coordinates               Weight
  0.005627  0.005627  0.005627      8.000000
  0.016881  0.005627  0.005627     24.000000
  0.028135  0.005627  0.005627     24.000000
  0.039389  0.005627  0.005627     24.000000
  0.050643  0.005627  0.005627     24.000000
  0.061898  0.005627  0.005627     24.000000
  0.073152  0.005627  0.005627     24.000000
  0.084406  0.005627  0.005627     24.000000
  0.095660  0.005627  0.005627     24.000000
  0.106914  0.005627  0.005627     24.000000
  0.118168  0.005627  0.005627     24.000000
  0.016881  0.016881  0.005627     24.000000
  0.028135  0.016881  0.005627     48.000000
  0.039389  0.016881  0.005627     48.000000
  0.050643  0.016881  0.005627     48.000000
  0.061898  0.016881  0.005627     48.000000
  0.073152  0.016881  0.005627     48.000000
  0.084406  0.016881  0.005627     48.000000
  0.095660  0.016881  0.005627     48.000000
  0.106914  0.016881  0.005627     48.000000
  0.118168  0.016881  0.005627     48.000000
  0.028135  0.028135  0.005627     24.000000
  0.039389  0.028135  0.005627     48.000000
  0.050643  0.028135  0.005627     48.000000
  0.061898  0.028135  0.005627     48.000000
  0.073152  0.028135  0.005627     48.000000
  0.084406  0.028135  0.005627     48.000000
  0.095660  0.028135  0.005627     48.000000
  0.106914  0.028135  0.005627     48.000000
  0.118168  0.028135  0.005627     48.000000
  0.039389  0.039389  0.005627     24.000000
  0.050643  0.039389  0.005627     48.000000
  0.061898  0.039389  0.005627     48.000000
  0.073152  0.039389  0.005627     48.000000
  0.084406  0.039389  0.005627     48.000000
  0.095660  0.039389  0.005627     48.000000
  0.106914  0.039389  0.005627     48.000000
  0.118168  0.039389  0.005627     48.000000
  0.050643  0.050643  0.005627     24.000000
  0.061898  0.050643  0.005627     48.000000
  0.073152  0.050643  0.005627     48.000000
  0.084406  0.050643  0.005627     48.000000
  0.095660  0.050643  0.005627     48.000000
  0.106914  0.050643  0.005627     48.000000
  0.118168  0.050643  0.005627     48.000000
  0.061898  0.061898  0.005627     24.000000
  0.073152  0.061898  0.005627     48.000000
  0.084406  0.061898  0.005627     48.000000
  0.095660  0.061898  0.005627     48.000000
  0.106914  0.061898  0.005627     48.000000
  0.118168  0.061898  0.005627     48.000000
  0.073152  0.073152  0.005627     24.000000
  0.084406  0.073152  0.005627     48.000000
  0.095660  0.073152  0.005627     48.000000
  0.106914  0.073152  0.005627     48.000000
  0.118168  0.073152  0.005627     48.000000
  0.084406  0.084406  0.005627     24.000000
  0.095660  0.084406  0.005627     48.000000
  0.106914  0.084406  0.005627     48.000000
  0.118168  0.084406  0.005627     48.000000
  0.095660  0.095660  0.005627     24.000000
  0.106914  0.095660  0.005627     48.000000
  0.118168  0.095660  0.005627     48.000000
  0.106914  0.106914  0.005627     24.000000
  0.118168  0.106914  0.005627     48.000000
  0.118168  0.118168  0.005627     24.000000
  0.016881  0.016881  0.016881      8.000000
  0.028135  0.016881  0.016881     24.000000
  0.039389  0.016881  0.016881     24.000000
  0.050643  0.016881  0.016881     24.000000
  0.061898  0.016881  0.016881     24.000000
  0.073152  0.016881  0.016881     24.000000
  0.084406  0.016881  0.016881     24.000000
  0.095660  0.016881  0.016881     24.000000
  0.106914  0.016881  0.016881     24.000000
  0.118168  0.016881  0.016881     24.000000
  0.028135  0.028135  0.016881     24.000000
  0.039389  0.028135  0.016881     48.000000
  0.050643  0.028135  0.016881     48.000000
  0.061898  0.028135  0.016881     48.000000
  0.073152  0.028135  0.016881     48.000000
  0.084406  0.028135  0.016881     48.000000
  0.095660  0.028135  0.016881     48.000000
  0.106914  0.028135  0.016881     48.000000
  0.118168  0.028135  0.016881     48.000000
  0.039389  0.039389  0.016881     24.000000
  0.050643  0.039389  0.016881     48.000000
  0.061898  0.039389  0.016881     48.000000
  0.073152  0.039389  0.016881     48.000000
  0.084406  0.039389  0.016881     48.000000
  0.095660  0.039389  0.016881     48.000000
  0.106914  0.039389  0.016881     48.000000
  0.118168  0.039389  0.016881     48.000000
  0.050643  0.050643  0.016881     24.000000
  0.061898  0.050643  0.016881     48.000000
  0.073152  0.050643  0.016881     48.000000
  0.084406  0.050643  0.016881     48.000000
  0.095660  0.050643  0.016881     48.000000
  0.106914  0.050643  0.016881     48.000000
  0.118168  0.050643  0.016881     48.000000
  0.061898  0.061898  0.016881     24.000000
  0.073152  0.061898  0.016881     48.000000
  0.084406  0.061898  0.016881     48.000000
  0.095660  0.061898  0.016881     48.000000
  0.106914  0.061898  0.016881     48.000000
  0.118168  0.061898  0.016881     48.000000
  0.073152  0.073152  0.016881     24.000000
  0.084406  0.073152  0.016881     48.000000
  0.095660  0.073152  0.016881     48.000000
  0.106914  0.073152  0.016881     48.000000
  0.118168  0.073152  0.016881     48.000000
  0.084406  0.084406  0.016881     24.000000
  0.095660  0.084406  0.016881     48.000000
  0.106914  0.084406  0.016881     48.000000
  0.118168  0.084406  0.016881     48.000000
  0.095660  0.095660  0.016881     24.000000
  0.106914  0.095660  0.016881     48.000000
  0.118168  0.095660  0.016881     48.000000
  0.106914  0.106914  0.016881     24.000000
  0.118168  0.106914  0.016881     48.000000
  0.118168  0.118168  0.016881     24.000000
  0.028135  0.028135  0.028135      8.000000
  0.039389  0.028135  0.028135     24.000000
  0.050643  0.028135  0.028135     24.000000
  0.061898  0.028135  0.028135     24.000000
  0.073152  0.028135  0.028135     24.000000
  0.084406  0.028135  0.028135     24.000000
  0.095660  0.028135  0.028135     24.000000
  0.106914  0.028135  0.028135     24.000000
  0.118168  0.028135  0.028135     24.000000
  0.039389  0.039389  0.028135     24.000000
  0.050643  0.039389  0.028135     48.000000
  0.061898  0.039389  0.028135     48.000000
  0.073152  0.039389  0.028135     48.000000
  0.084406  0.039389  0.028135     48.000000
  0.095660  0.039389  0.028135     48.000000
  0.106914  0.039389  0.028135     48.000000
  0.118168  0.039389  0.028135     48.000000
  0.050643  0.050643  0.028135     24.000000
  0.061898  0.050643  0.028135     48.000000
  0.073152  0.050643  0.028135     48.000000
  0.084406  0.050643  0.028135     48.000000
  0.095660  0.050643  0.028135     48.000000
  0.106914  0.050643  0.028135     48.000000
  0.118168  0.050643  0.028135     48.000000
  0.061898  0.061898  0.028135     24.000000
  0.073152  0.061898  0.028135     48.000000
  0.084406  0.061898  0.028135     48.000000
  0.095660  0.061898  0.028135     48.000000
  0.106914  0.061898  0.028135     48.000000
  0.118168  0.061898  0.028135     48.000000
  0.073152  0.073152  0.028135     24.000000
  0.084406  0.073152  0.028135     48.000000
  0.095660  0.073152  0.028135     48.000000
  0.106914  0.073152  0.028135     48.000000
  0.118168  0.073152  0.028135     48.000000
  0.084406  0.084406  0.028135     24.000000
  0.095660  0.084406  0.028135     48.000000
  0.106914  0.084406  0.028135     48.000000
  0.118168  0.084406  0.028135     48.000000
  0.095660  0.095660  0.028135     24.000000
  0.106914  0.095660  0.028135     48.000000
  0.118168  0.095660  0.028135     48.000000
  0.106914  0.106914  0.028135     24.000000
  0.118168  0.106914  0.028135     48.000000
  0.118168  0.118168  0.028135     24.000000
  0.039389  0.039389  0.039389      8.000000
  0.050643  0.039389  0.039389     24.000000
  0.061898  0.039389  0.039389     24.000000
  0.073152  0.039389  0.039389     24.000000
  0.084406  0.039389  0.039389     24.000000
  0.095660  0.039389  0.039389     24.000000
  0.106914  0.039389  0.039389     24.000000
  0.118168  0.039389  0.039389     24.000000
  0.050643  0.050643  0.039389     24.000000
  0.061898  0.050643  0.039389     48.000000
  0.073152  0.050643  0.039389     48.000000
  0.084406  0.050643  0.039389     48.000000
  0.095660  0.050643  0.039389     48.000000
  0.106914  0.050643  0.039389     48.000000
  0.118168  0.050643  0.039389     48.000000
  0.061898  0.061898  0.039389     24.000000
  0.073152  0.061898  0.039389     48.000000
  0.084406  0.061898  0.039389     48.000000
  0.095660  0.061898  0.039389     48.000000
  0.106914  0.061898  0.039389     48.000000
  0.118168  0.061898  0.039389     48.000000
  0.073152  0.073152  0.039389     24.000000
  0.084406  0.073152  0.039389     48.000000
  0.095660  0.073152  0.039389     48.000000
  0.106914  0.073152  0.039389     48.000000
  0.118168  0.073152  0.039389     48.000000
  0.084406  0.084406  0.039389     24.000000
  0.095660  0.084406  0.039389     48.000000
  0.106914  0.084406  0.039389     48.000000
  0.118168  0.084406  0.039389     48.000000
  0.095660  0.095660  0.039389     24.000000
  0.106914  0.095660  0.039389     48.000000
  0.118168  0.095660  0.039389     48.000000
  0.106914  0.106914  0.039389     24.000000
  0.118168  0.106914  0.039389     48.000000
  0.118168  0.118168  0.039389     24.000000
  0.050643  0.050643  0.050643      8.000000
  0.061898  0.050643  0.050643     24.000000
  0.073152  0.050643  0.050643     24.000000
  0.084406  0.050643  0.050643     24.000000
  0.095660  0.050643  0.050643     24.000000
  0.106914  0.050643  0.050643     24.000000
  0.118168  0.050643  0.050643     24.000000
  0.061898  0.061898  0.050643     24.000000
  0.073152  0.061898  0.050643     48.000000
  0.084406  0.061898  0.050643     48.000000
  0.095660  0.061898  0.050643     48.000000
  0.106914  0.061898  0.050643     48.000000
  0.118168  0.061898  0.050643     48.000000
  0.073152  0.073152  0.050643     24.000000
  0.084406  0.073152  0.050643     48.000000
  0.095660  0.073152  0.050643     48.000000
  0.106914  0.073152  0.050643     48.000000
  0.118168  0.073152  0.050643     48.000000
  0.084406  0.084406  0.050643     24.000000
  0.095660  0.084406  0.050643     48.000000
  0.106914  0.084406  0.050643     48.000000
  0.118168  0.084406  0.050643     48.000000
  0.095660  0.095660  0.050643     24.000000
  0.106914  0.095660  0.050643     48.000000
  0.118168  0.095660  0.050643     48.000000
  0.106914  0.106914  0.050643     24.000000
  0.118168  0.106914  0.050643     48.000000
  0.118168  0.118168  0.050643     24.000000
  0.061898  0.061898  0.061898      8.000000
  0.073152  0.061898  0.061898     24.000000
  0.084406  0.061898  0.061898     24.000000
  0.095660  0.061898  0.061898     24.000000
  0.106914  0.061898  0.061898     24.000000
  0.118168  0.061898  0.061898     24.000000
  0.073152  0.073152  0.061898     24.000000
  0.084406  0.073152  0.061898     48.000000
  0.095660  0.073152  0.061898     48.000000
  0.106914  0.073152  0.061898     48.000000
  0.118168  0.073152  0.061898     48.000000
  0.084406  0.084406  0.061898     24.000000
  0.095660  0.084406  0.061898     48.000000
  0.106914  0.084406  0.061898     48.000000
  0.118168  0.084406  0.061898     48.000000
  0.095660  0.095660  0.061898     24.000000
  0.106914  0.095660  0.061898     48.000000
  0.118168  0.095660  0.061898     48.000000
  0.106914  0.106914  0.061898     24.000000
  0.118168  0.106914  0.061898     48.000000
  0.118168  0.118168  0.061898     24.000000
  0.073152  0.073152  0.073152      8.000000
  0.084406  0.073152  0.073152     24.000000
  0.095660  0.073152  0.073152     24.000000
  0.106914  0.073152  0.073152     24.000000
  0.118168  0.073152  0.073152     24.000000
  0.084406  0.084406  0.073152     24.000000
  0.095660  0.084406  0.073152     48.000000
  0.106914  0.084406  0.073152     48.000000
  0.118168  0.084406  0.073152     48.000000
  0.095660  0.095660  0.073152     24.000000
  0.106914  0.095660  0.073152     48.000000
  0.118168  0.095660  0.073152     48.000000
  0.106914  0.106914  0.073152     24.000000
  0.118168  0.106914  0.073152     48.000000
  0.118168  0.118168  0.073152     24.000000
  0.084406  0.084406  0.084406      8.000000
  0.095660  0.084406  0.084406     24.000000
  0.106914  0.084406  0.084406     24.000000
  0.118168  0.084406  0.084406     24.000000
  0.095660  0.095660  0.084406     24.000000
  0.106914  0.095660  0.084406     48.000000
  0.118168  0.095660  0.084406     48.000000
  0.106914  0.106914  0.084406     24.000000
  0.118168  0.106914  0.084406     48.000000
  0.118168  0.118168  0.084406     24.000000
  0.095660  0.095660  0.095660      8.000000
  0.106914  0.095660  0.095660     24.000000
  0.118168  0.095660  0.095660     24.000000
  0.106914  0.106914  0.095660     24.000000
  0.118168  0.106914  0.095660     48.000000
  0.118168  0.118168  0.095660     24.000000
  0.106914  0.106914  0.106914      8.000000
  0.118168  0.106914  0.106914     24.000000
  0.118168  0.118168  0.106914     24.000000
  0.118168  0.118168  0.118168      8.000000
 


--------------------------------------------------------------------------------------------------------




 Dimension of arrays:
   k-points           NKPTS =    286   k-points in BZ     NKDIM =    286   number of bands    NBANDS=     14
   number of dos      NEDOS =    301   number of ions     NIONS =      4
   non local maximal  LDIM  =      4   non local SUM 2l+1 LMDIM =      8
   total plane-waves  NPLWV =  13824
   max r-space proj   IRMAX =   3353   max aug-charges    IRDMAX=  11864
   dimension x,y,z NGX =    24 NGY =   24 NGZ =   24
   dimension x,y,z NGXF=    48 NGYF=   48 NGZF=   48
   support grid    NGXF=    48 NGYF=   48 NGZF=   48
   ions per type =               4
   NGX,Y,Z   is equivalent  to a cutoff of  11.13, 11.13, 11.13 a.u.
   NGXF,Y,Z  is equivalent  to a cutoff of  22.25, 22.25, 22.25 a.u.

 SYSTEM =  Al fcc relaxation                       
 POSCAR =  Al4                                     

 Startparameter for this run:
   NWRITE =      2    write-flag & timer
   PREC   = accura    normal or accurate (medium, high low for compatibility)
   ISTART =      0    job   : 0-new  1-cont  2-samecut
   ICHARG =      2    charge: 1-file 2-atom 10-const
   ISPIN  =      1    spin polarized calculation?
   LNONCOLLINEAR =      F non collinear calculations
   LSORBIT =      F    spin-orbit coupling
   INIWAV =      1    electr: 0-lowe 1-rand  2-diag
   LASPH  =      F    aspherical Exc in radial PAW
 Electronic Relaxation 1
   ENCUT  =  400.0 eV  29.40 Ry    5.42 a.u.   5.85  5.85  5.85*2*pi/ulx,y,z
   ENINI  =  400.0     initial cutoff
   ENAUG  =  291.1 eV  augmentation charge cutoff
   NELM   =     60;   NELMIN=  4; NELMDL= -5     # of ELM steps 
   EDIFF  = 0.1E-05   stopping-criterion for ELM
   LREAL  =      T    real-space projection
   NLSPLINE    = F    spline interpolate recip. space projectors
   LCOMPAT=      F    compatible to vasp.4.4
   GGA_COMPAT  = T    GGA compatible to vasp.4.4-vasp.4.6
   LMAXPAW     = -100 max onsite density
   LMAXMIX     =    2 max onsite mixed and CHGCAR
   VOSKOWN=      0    Vosko Wilk Nusair interpolation
   ROPT   =   -0.00025
 Ionic relaxation
   EDIFFG = 0.1E-04   stopping-criterion for IOM
   NSW    =    100    number of steps for IOM
   NBLOCK =      1;   KBLOCK =    100    inner block; outer block 
   IBRION =      2    ionic relax: 0-MD 1-quasi-New 2-CG
   NFREE  =      1    steps in history (QN), initial steepest desc. (CG)
   ISIF   =      4    stress and relaxation
   IWAVPR =     11    prediction:  0-non 1-charg 2-wave 3-comb
   ISYM   =      2    0-nonsym 1-usesym 2-fastsym
   LCORR  =      T    Harris-Foulkes like correction to forces

   POTIM  = 0.5000    time-step for ionic-motion
   TEIN   =    0.0    initial temperature
   TEBEG  =    0.0;   TEEND  =   0.0 temperature during run
   SMASS  =  -3.00    Nose mass-parameter (am)
   estimated Nose-frequenzy (Omega)   =  0.10E-29 period in steps = 0.13E+47 mass=  -0.294E-27a.u.
   SCALEE = 1.0000    scale energy and forces
   NPACO  =    256;   APACO  = 10.0  distance and # of slots for P.C.
   PSTRESS=    0.0 pullay stress

  Mass of Ions in am
   POMASS =  26.98
  Ionic Valenz
   ZVAL   =   3.00
  Atomic Wigner-Seitz radii
   RWIGS  =  -1.00
  virtual crystal weights 
   VCA    =   1.00
   NELECT =      12.0000    total number of electrons
   NUPDOWN=      -1.0000    fix difference up-down

 DOS related values:
   EMIN   =  10.00;   EMAX   =-10.00  energy-range for DOS
   EFERMI =   0.00;   METHOD = LEGACY      
   ISMEAR =     1;   SIGMA  =   0.20  broadening in eV -4-tet -1-fermi 0-gaus

 Electronic relaxation 2 (details)
   IALGO  =     68    algorithm
   LDIAG  =      T    sub-space diagonalisation (order eigenvalues)
   LSUBROT=      F    optimize rotation matrix (better conditioning)
   TURBO    =      0    0=normal 1=particle mesh
   IRESTART =      0    0=no restart 2=restart with 2 vectors
   NREBOOT  =      0    no. of reboots
   NMIN     =      0    reboot dimension
   EREF     =   0.00    reference energy to select bands
   IMIX   =      4    mixing-type and parameters
     AMIX     =   0.40;   BMIX     =  1.00
     AMIX_MAG =   1.60;   BMIX_MAG =  1.00
     AMIN     =   0.10
     WC   =   100.;   INIMIX=   1;  MIXPRE=   1;  MAXMIX= -45

 Intra band minimization:
   WEIMIN = 0.0010     energy-eigenvalue tresh-hold
   EBREAK =  0.18E-07  absolut break condition
   DEPER  =   0.30     relativ break condition  

   TIME   =   0.40     timestep for ELM

  volume/ion in A,a.u.               =      11.53        77.81
  Fermi-wavevector in a.u.,A,eV,Ry     =   1.045128  1.975006 14.861551  1.092293
  Thomas-Fermi vector in A             =   2.179911

 Write flags
   LWAVE        =      F    write WAVECAR
   LDOWNSAMPLE  =      F    k-point downsampling of WAVECAR
   LCHARG       =      F    write CHGCAR
   LVTOT        =      F    write LOCPOT, total local potential
   LVHAR        =      F    write LOCPOT, Hartree potential only
   LELF         =      F    write electronic localiz. function (ELF)
   LORBIT       =      0    0 simple, 1 ext, 2 COOP (PROOUT), +10 PAW based schemes


 Dipole corrections
   LMONO  =      F    monopole corrections only (constant potential shift)
   LDIPOL =      F    correct potential (dipole corrections)
   IDIPOL =      0    1-x, 2-y, 3-z, 4-all directions 
   EPSILON=  1.0000000 bulk dielectric constant

 Exchange correlation treatment:
   GGA     =    --    GGA type
   LEXCH   =     8    internal setting for exchange type
   LIBXC   =     F    Libxc                    
   VOSKOWN =     0    Vosko Wilk Nusair interpolation
   LHFCALC =     F    Hartree Fock is set to
   LHFONE  =     F    Hartree Fock one center treatment
   AEXX    =    0.0000 exact exchange contribution

 Linear response parameters
   LEPSILON=     F    determine dielectric tensor
   LRPA    =     F    only Hartree local field effects (RPA)
   LNABLA  =     F    use nabla operator in PAW spheres
   LVEL    =     F    velocity operator in full k-point grid
   CSHIFT  =0.1000    complex shift for real part using Kramers Kronig
   OMEGAMAX=  -1.0    maximum frequency
   DEG_THRESHOLD= 0.2000000E-02 threshold for treating states as degnerate
   RTIME   =   -0.100 relaxation time in fs
  (WPLASMAI=    0.000 imaginary part of plasma frequency in eV, 0.658/RTIME)
   DFIELD  = 0.0000000 0.0000000 0.0000000 field for delta impulse in time

  Optional k-point grid parameters
   LKPOINTS_OPT  =     F    use optional k-point grid
   KPOINTS_OPT_MODE=     1    mode for optional k-point grid

 Orbital magnetization related:
   ORBITALMAG=     F  switch on orbital magnetization
   LCHIMAG   =     F  perturbation theory with respect to B field
   DQ        =  0.001000  dq finite difference perturbation B field
   LLRAUG    =     F  two centre corrections for induced B field
   LBONE     =     F  B-component reconstruction in AE one-centre
   LVGVCALC  =     T  calculate vGv susceptibility
   LVGVAPPL  =     F  apply vGv susceptibility instead of pGv for G=0

 Random number generation:
   RANDOM_GENERATOR = DEFAULT
   PCG_SEED         = not used


--------------------------------------------------------------------------------------------------------


 conjugate gradient relaxation of ions
 charge density and potential will be updated during run
 non-spin polarized calculation
 RMM-DIIS sequential band-by-band and
  variant of blocked Davidson during initial phase
 perform sub-space diagonalisation
    before iterative eigenvector-optimisation
 modified Broyden-mixing scheme, WC =      100.0
 initial mixing is a Kerker type mixing with AMIX =  0.4000 and BMIX =      1.0000
 Hartree-type preconditioning will be used
 using additional bands            8
 real space projection scheme for non local part
 use partial core corrections
 calculate Harris-corrections to forces   (improved forces if not selfconsistent)
 use gradient corrections 
 use of overlap-Matrix (Vanderbilt PP)
 Methfessel and Paxton  Order N= 1 SIGMA  =   0.20


--------------------------------------------------------------------------------------------------------


  energy-cutoff  :      400.00
  volume of cell :       46.12
      direct lattice vectors                 reciprocal lattice vectors
     3.586181837  0.000000000  0.000000000     0.278848102  0.000000000 -0.000000000
    -0.000000000  3.586181837  0.000000000     0.000000000  0.278848102  0.000000000
     0.000000000  0.000000000  3.586181837    -0.000000000 -0.000000000  0.278848102

  length of vectors
     3.586181837  3.586181837  3.586181837     0.278848102  0.278848102  0.278848102



 k-points in units of 2pi/SCALE and weight: Automatic kpoint scheme                 
   0.00562705  0.00562705  0.00562705       0.001
   0.01688116  0.00562705  0.00562705       0.002
   0.02813527  0.00562705  0.00562705       0.002
   0.03938937  0.00562705  0.00562705       0.002
   0.05064348  0.00562705  0.00562705       0.002
   0.06189759  0.00562705  0.00562705       0.002
   0.07315169  0.00562705  0.00562705       0.002
   0.08440580  0.00562705  0.00562705       0.002
   0.09565991  0.00562705  0.00562705       0.002
   0.10691401  0.00562705  0.00562705       0.002
   0.11816812  0.00562705  0.00562705       0.002
   0.01688116  0.01688116  0.00562705       0.002
   0.02813527  0.01688116  0.00562705       0.005
   0.03938937  0.01688116  0.00562705       0.005
   0.05064348  0.01688116  0.00562705       0.005
   0.06189759  0.01688116  0.00562705       0.005
   0.07315169  0.01688116  0.00562705       0.005
   0.08440580  0.01688116  0.00562705       0.005
   0.09565991  0.01688116  0.00562705       0.005
   0.10691401  0.01688116  0.00562705       0.005
   0.11816812  0.01688116  0.00562705       0.005
   0.02813527  0.02813527  0.00562705       0.002
   0.03938937  0.02813527  0.00562705       0.005
   0.05064348  0.02813527  0.00562705       0.005
   0.06189759  0.02813527  0.00562705       0.005
   0.07315169  0.02813527  0.00562705       0.005
   0.08440580  0.02813527  0.00562705       0.005
   0.09565991  0.02813527  0.00562705       0.005
   0.10691401  0.02813527  0.00562705       0.005
   0.11816812  0.02813527  0.00562705       0.005
   0.03938937  0.03938937  0.00562705       0.002
   0.05064348  0.03938937  0.00562705       0.005
   0.06189759  0.03938937  0.00562705       0.005
   0.07315169  0.03938937  0.00562705       0.005
   0.08440580  0.03938937  0.00562705       0.005
   0.09565991  0.03938937  0.00562705       0.005
   0.10691401  0.03938937  0.00562705       0.005
   0.11816812  0.03938937  0.00562705       0.005
   0.05064348  0.05064348  0.00562705       0.002
   0.06189759  0.05064348  0.00562705       0.005
   0.07315169  0.05064348  0.00562705       0.005
   0.08440580  0.05064348  0.00562705       0.005
   0.09565991  0.05064348  0.00562705       0.005
   0.10691401  0.05064348  0.00562705       0.005
   0.11816812  0.05064348  0.00562705       0.005
   0.06189759  0.06189759  0.00562705       0.002
   0.07315169  0.06189759  0.00562705       0.005
   0.08440580  0.06189759  0.00562705       0.005
   0.09565991  0.06189759  0.00562705       0.005
   0.10691401  0.06189759  0.00562705       0.005
   0.11816812  0.06189759  0.00562705       0.005
   0.07315169  0.07315169  0.00562705       0.002
   0.08440580  0.07315169  0.00562705       0.005
   0.09565991  0.07315169  0.00562705       0.005
   0.10691401  0.07315169  0.00562705       0.005
   0.11816812  0.07315169  0.00562705       0.005
   0.08440580  0.08440580  0.00562705       0.002
   0.09565991  0.08440580  0.00562705       0.005
   0.10691401  0.08440580  0.00562705       0.005
   0.11816812  0.08440580  0.00562705       0.005
   0.09565991  0.09565991  0.00562705       0.002
   0.10691401  0.09565991  0.00562705       0.005
   0.11816812  0.09565991  0.00562705       0.005
   0.10691401  0.10691401  0.00562705       0.002
   0.11816812  0.10691401  0.00562705       0.005
   0.11816812  0.11816812  0.00562705       0.002
   0.01688116  0.01688116  0.01688116       0.001
   0.02813527  0.01688116  0.01688116       0.002
   0.03938937  0.01688116  0.01688116       0.002
   0.05064348  0.01688116  0.01688116       0.002
   0.06189759  0.01688116  0.01688116       0.002
   0.07315169  0.01688116  0.01688116       0.002
   0.08440580  0.01688116  0.01688116       0.002
   0.09565991  0.01688116  0.01688116       0.002
   0.10691401  0.01688116  0.01688116       0.002
   0.11816812  0.01688116  0.01688116       0.002
   0.02813527  0.02813527  0.01688116       0.002
   0.03938937  0.02813527  0.01688116       0.005
   0.05064348  0.02813527  0.01688116       0.005
   0.06189759  0.02813527  0.01688116       0.005
   0.07315169  0.02813527  0.01688116       0.005
   0.08440580  0.02813527  0.01688116       0.005
   0.09565991  0.02813527  0.01688116       0.005
   0.10691401  0.02813527  0.01688116       0.005
   0.11816812  0.02813527  0.01688116       0.005
   0.03938937  0.03938937  0.01688116       0.002
   0.05064348  0.03938937  0.01688116       0.005
   0.06189759  0.03938937  0.01688116       0.005
   0.07315169  0.03938937  0.01688116       0.005
   0.08440580  0.03938937  0.01688116       0.005
   0.09565991  0.03938937  0.01688116       0.005
   0.10691401  0.03938937  0.01688116       0.005
   0.11816812  0.03938937  0.01688116       0.005
   0.05064348  0.05064348  0.01688116       0.002
   0.06189759  0.05064348  0.01688116       0.005
   0.07315169  0.05064348  0.01688116       0.005
   0.08440580  0.05064348  0.01688116       0.005
   0.09565991  0.05064348  0.01688116       0.005
   0.10691401  0.05064348  0.01688116       0.005
   0.11816812  0.05064348  0.01688116       0.005
   0.06189759  0.06189759  0.01688116       0.002
   0.07315169  0.06189759  0.01688116       0.005
   0.08440580  0.06189759  0.01688116       0.005
   0.09565991  0.06189759  0.01688116       0.005
   0.10691401  0.06189759  0.01688116       0.005
   0.11816812  0.06189759  0.01688116       0.005
   0.07315169  0.07315169  0.01688116       0.002
   0.08440580  0.07315169  0.01688116       0.005
   0.09565991  0.07315169  0.01688116       0.005
   0.10691401  0.07315169  0.01688116       0.005
   0.11816812  0.07315169  0.01688116       0.005
   0.08440580  0.08440580  0.01688116       0.002
   0.09565991  0.08440580  0.01688116       0.005
   0.10691401  0.08440580  0.01688116       0.005
   0.11816812  0.08440580  0.01688116       0.005
   0.09565991  0.09565991  0.01688116       0.002
   0.10691401  0.09565991  0.01688116       0.005
   0.11816812  0.09565991  0.01688116       0.005
   0.10691401  0.10691401  0.01688116       0.002
   0.11816812  0.10691401  0.01688116       0.005
   0.11816812  0.11816812  0.01688116       0.002
   0.02813527  0.02813527  0.02813527       0.001
   0.03938937  0.02813527  0.02813527       0.002
   0.05064348  0.02813527  0.02813527       0.002
   0.06189759  0.02813527  0.02813527       0.002
   0.07315169  0.02813527  0.02813527       0.002
   0.08440580  0.02813527  0.02813527       0.002
   0.09565991  0.02813527  0.02813527       0.002
   0.10691401  0.02813527  0.02813527       0.002
   0.11816812  0.02813527  0.02813527       0.002
   0.03938937  0.03938937  0.02813527       0.002
   0.05064348  0.03938937  0.02813527       0.005
   0.06189759  0.03938937  0.02813527       0.005
   0.07315169  0.03938937  0.02813527       0.005
   0.08440580  0.03938937  0.02813527       0.005
   0.09565991  0.03938937  0.02813527       0.005
   0.10691401  0.03938937  0.02813527       0.005
   0.11816812  0.03938937  0.02813527       0.005
   0.05064348  0.05064348  0.02813527       0.002
   0.06189759  0.05064348  0.02813527       0.005
   0.07315169  0.05064348  0.02813527       0.005
   0.08440580  0.05064348  0.02813527       0.005
   0.09565991  0.05064348  0.02813527       0.005
   0.10691401  0.05064348  0.02813527       0.005
   0.11816812  0.05064348  0.02813527       0.005
   0.06189759  0.06189759  0.02813527       0.002
   0.07315169  0.06189759  0.02813527       0.005
   0.08440580  0.06189759  0.02813527       0.005
   0.09565991  0.06189759  0.02813527       0.005
   0.10691401  0.06189759  0.02813527       0.005
   0.11816812  0.06189759  0.02813527       0.005
   0.07315169  0.07315169  0.02813527       0.002
   0.08440580  0.07315169  0.02813527       0.005
   0.09565991  0.07315169  0.02813527       0.005
   0.10691401  0.07315169  0.02813527       0.005
   0.11816812  0.07315169  0.02813527       0.005
   0.08440580  0.08440580  0.02813527       0.002
   0.09565991  0.08440580  0.02813527       0.005
   0.10691401  0.08440580  0.02813527       0.005
   0.11816812  0.08440580  0.02813527       0.005
   0.09565991  0.09565991  0.02813527       0.002
   0.10691401  0.09565991  0.02813527       0.005
   0.11816812  0.09565991  0.02813527       0.005
   0.10691401  0.10691401  0.02813527       0.002
   0.11816812  0.10691401  0.02813527       0.005
   0.11816812  0.11816812  0.02813527       0.002
   0.03938937  0.03938937  0.03938937       0.001
   0.05064348  0.03938937  0.03938937       0.002
   0.06189759  0.03938937  0.03938937       0.002
   0.07315169  0.03938937  0.03938937       0.002
   0.08440580  0.03938937  0.03938937       0.002
   0.09565991  0.03938937  0.03938937       0.002
   0.10691401  0.03938937  0.03938937       0.002
   0.11816812  0.03938937  0.03938937       0.002
   0.05064348  0.05064348  0.03938937       0.002
   0.06189759  0.05064348  0.03938937       0.005
   0.07315169  0.05064348  0.03938937       0.005
   0.08440580  0.05064348  0.03938937       0.005
   0.09565991  0.05064348  0.03938937       0.005
   0.10691401  0.05064348  0.03938937       0.005
   0.11816812  0.05064348  0.03938937       0.005
   0.06189759  0.06189759  0.03938937       0.002
   0.07315169  0.06189759  0.03938937       0.005
   0.08440580  0.06189759  0.03938937       0.005
   0.09565991  0.06189759  0.03938937       0.005
   0.10691401  0.06189759  0.03938937       0.005
   0.11816812  0.06189759  0.03938937       0.005
   0.07315169  0.07315169  0.03938937       0.002
   0.08440580  0.07315169  0.03938937       0.005
   0.09565991  0.07315169  0.03938937       0.005
   0.10691401  0.07315169  0.03938937       0.005
   0.11816812  0.07315169  0.03938937       0.005
   0.08440580  0.08440580  0.03938937       0.002
   0.09565991  0.08440580  0.03938937       0.005
   0.10691401  0.08440580  0.03938937       0.005
   0.11816812  0.08440580  0.03938937       0.005
   0.09565991  0.09565991  0.03938937       0.002
   0.10691401  0.09565991  0.03938937       0.005
   0.11816812  0.09565991  0.03938937       0.005
   0.10691401  0.10691401  0.03938937       0.002
   0.11816812  0.10691401  0.03938937       0.005
   0.11816812  0.11816812  0.03938937       0.002
   0.05064348  0.05064348  0.05064348       0.001
   0.06189759  0.05064348  0.05064348       0.002
   0.07315169  0.05064348  0.05064348       0.002
   0.08440580  0.05064348  0.05064348       0.002
   0.09565991  0.05064348  0.05064348       0.002
   0.10691401  0.05064348  0.05064348       0.002
   0.11816812  0.05064348  0.05064348       0.002
   0.06189759  0.06189759  0.05064348       0.002
   0.07315169  0.06189759  0.05064348       0.005
   0.08440580  0.06189759  0.05064348       0.005
   0.09565991  0.06189759  0.05064348       0.005
   0.10691401  0.06189759  0.05064348       0.005
   0.11816812  0.06189759  0.05064348       0.005
   0.07315169  0.07315169  0.05064348       0.002
   0.08440580  0.07315169  0.05064348       0.005
   0.09565991  0.07315169  0.05064348       0.005
   0.10691401  0.07315169  0.05064348       0.005
   0.11816812  0.07315169  0.05064348       0.005
   0.08440580  0.08440580  0.05064348       0.002
   0.09565991  0.08440580  0.05064348       0.005
   0.10691401  0.08440580  0.05064348       0.005
   0.11816812  0.08440580  0.05064348       0.005
   0.09565991  0.09565991  0.05064348       0.002
   0.10691401  0.09565991  0.05064348       0.005
   0.11816812  0.09565991  0.05064348       0.005
   0.10691401  0.10691401  0.05064348       0.002
   0.11816812  0.10691401  0.05064348       0.005
   0.11816812  0.11816812  0.05064348       0.002
   0.06189759  0.06189759  0.06189759       0.001
   0.07315169  0.06189759  0.06189759       0.002
   0.08440580  0.06189759  0.06189759       0.002
   0.09565991  0.06189759  0.06189759       0.002
   0.10691401  0.06189759  0.06189759       0.002
   0.11816812  0.06189759  0.06189759       0.002
   0.07315169  0.07315169  0.06189759       0.002
   0.08440580  0.07315169  0.06189759       0.005
   0.09565991  0.07315169  0.06189759       0.005
   0.10691401  0.07315169  0.06189759       0.005
   0.11816812  0.07315169  0.06189759       0.005
   0.08440580  0.08440580  0.06189759       0.002
   0.09565991  0.08440580  0.06189759       0.005
   0.10691401  0.08440580  0.06189759       0.005
   0.11816812  0.08440580  0.06189759       0.005
   0.09565991  0.09565991  0.06189759       0.002
   0.10691401  0.09565991  0.06189759       0.005
   0.11816812  0.09565991  0.06189759       0.005
   0.10691401  0.10691401  0.06189759       0.002
   0.11816812  0.10691401  0.06189759       0.005
   0.11816812  0.11816812  0.06189759       0.002
   0.07315169  0.07315169  0.07315169       0.001
   0.08440580  0.07315169  0.07315169       0.002
   0.09565991  0.07315169  0.07315169       0.002
   0.10691401  0.07315169  0.07315169       0.002
   0.11816812  0.07315169  0.07315169       0.002
   0.08440580  0.08440580  0.07315169       0.002
   0.09565991  0.08440580  0.07315169       0.005
   0.10691401  0.08440580  0.07315169       0.005
   0.11816812  0.08440580  0.07315169       0.005
   0.09565991  0.09565991  0.07315169       0.002
   0.10691401  0.09565991  0.07315169       0.005
   0.11816812  0.09565991  0.07315169       0.005
   0.10691401  0.10691401  0.07315169       0.002
   0.11816812  0.10691401  0.07315169       0.005
   0.11816812  0.11816812  0.07315169       0.002
   0.08440580  0.08440580  0.08440580       0.001
   0.09565991  0.08440580  0.08440580       0.002
   0.10691401  0.08440580  0.08440580       0.002
   0.11816812  0.08440580  0.08440580       0.002
   0.09565991  0.09565991  0.08440580       0.002
   0.10691401  0.09565991  0.08440580       0.005
   0.11816812  0.09565991  0.08440580       0.005
   0.10691401  0.10691401  0.08440580       0.002
   0.11816812  0.10691401  0.08440580       0.005
   0.11816812  0.11816812  0.08440580       0.002
   0.09565991  0.09565991  0.09565991       0.001
   0.10691401  0.09565991  0.09565991       0.002
   0.11816812  0.09565991  0.09565991       0.002
   0.10691401  0.10691401  0.09565991       0.002
   0.11816812  0.10691401  0.09565991       0.005
   0.11816812  0.11816812  0.09565991       0.002
   0.10691401  0.10691401  0.10691401       0.001
   0.11816812  0.10691401  0.10691401       0.002
   0.11816812  0.11816812  0.10691401       0.002
   0.11816812  0.11816812  0.11816812       0.001

 k-points in reciprocal lattice and weights: Automatic kpoint scheme                 
   0.02272727  0.02272727  0.02272727       0.001
   0.06818182  0.02272727  0.02272727       0.002
   0.11363636  0.02272727  0.02272727       0.002
   0.15909091  0.02272727  0.02272727       0.002
   0.20454545  0.02272727  0.02272727       0.002
   0.25000000  0.02272727  0.02272727       0.002
   0.29545455  0.02272727  0.02272727       0.002
   0.34090909  0.02272727  0.02272727       0.002
   0.38636364  0.02272727  0.02272727       0.002
   0.43181818  0.02272727  0.02272727       0.002
   0.47727273  0.02272727  0.02272727       0.002
   0.06818182  0.06818182  0.02272727       0.002
   0.11363636  0.06818182  0.02272727       0.005
   0.15909091  0.06818182  0.02272727       0.005
   0.20454545  0.06818182  0.02272727       0.005
   0.25000000  0.06818182  0.02272727       0.005
   0.29545455  0.06818182  0.02272727       0.005
   0.34090909  0.06818182  0.02272727       0.005
   0.38636364  0.06818182  0.02272727       0.005
   0.43181818  0.06818182  0.02272727       0.005
   0.47727273  0.06818182  0.02272727       0.005
   0.11363636  0.11363636  0.02272727       0.002
   0.15909091  0.11363636  0.02272727       0.005
   0.20454545  0.11363636  0.02272727       0.005
   0.25000000  0.11363636  0.02272727       0.005
   0.29545455  0.11363636  0.02272727       0.005
   0.34090909  0.11363636  0.02272727       0.005
   0.38636364  0.11363636  0.02272727       0.005
   0.43181818  0.11363636  0.02272727       0.005
   0.47727273  0.11363636  0.02272727       0.005
   0.15909091  0.15909091  0.02272727       0.002
   0.20454545  0.15909091  0.02272727       0.005
   0.25000000  0.15909091  0.02272727       0.005
   0.29545455  0.15909091  0.02272727       0.005
   0.34090909  0.15909091  0.02272727       0.005
   0.38636364  0.15909091  0.02272727       0.005
   0.43181818  0.15909091  0.02272727       0.005
   0.47727273  0.15909091  0.02272727       0.005
   0.20454545  0.20454545  0.02272727       0.002
   0.25000000  0.20454545  0.02272727       0.005
   0.29545455  0.20454545  0.02272727       0.005
   0.34090909  0.20454545  0.02272727       0.005
   0.38636364  0.20454545  0.02272727       0.005
   0.43181818  0.20454545  0.02272727       0.005
   0.47727273  0.20454545  0.02272727       0.005
   0.25000000  0.25000000  0.02272727       0.002
   0.29545455  0.25000000  0.02272727       0.005
   0.34090909  0.25000000  0.02272727       0.005
   0.38636364  0.25000000  0.02272727       0.005
   0.43181818  0.25000000  0.02272727       0.005
   0.47727273  0.25000000  0.02272727       0.005
   0.29545455  0.29545455  0.02272727       0.002
   0.34090909  0.29545455  0.02272727       0.005
   0.38636364  0.29545455  0.02272727       0.005
   0.43181818  0.29545455  0.02272727       0.005
   0.47727273  0.29545455  0.02272727       0.005
   0.34090909  0.34090909  0.02272727       0.002
   0.38636364  0.34090909  0.02272727       0.005
   0.43181818  0.34090909  0.02272727       0.005
   0.47727273  0.34090909  0.02272727       0.005
   0.38636364  0.38636364  0.02272727       0.002
   0.43181818  0.38636364  0.02272727       0.005
   0.47727273  0.38636364  0.02272727       0.005
   0.43181818  0.43181818  0.02272727       0.002
   0.47727273  0.43181818  0.02272727       0.005
   0.47727273  0.47727273  0.02272727       0.002
   0.06818182  0.06818182  0.06818182       0.001
   0.11363636  0.06818182  0.06818182       0.002
   0.15909091  0.06818182  0.06818182       0.002
   0.20454545  0.06818182  0.06818182       0.002
   0.25000000  0.06818182  0.06818182       0.002
   0.29545455  0.06818182  0.06818182       0.002
   0.34090909  0.06818182  0.06818182       0.002
   0.38636364  0.06818182  0.06818182       0.002
   0.43181818  0.06818182  0.06818182       0.002
   0.47727273  0.06818182  0.06818182       0.002
   0.11363636  0.11363636  0.06818182       0.002
   0.15909091  0.11363636  0.06818182       0.005
   0.20454545  0.11363636  0.06818182       0.005
   0.25000000  0.11363636  0.06818182       0.005
   0.29545455  0.11363636  0.06818182       0.005
   0.34090909  0.11363636  0.06818182       0.005
   0.38636364  0.11363636  0.06818182       0.005
   0.43181818  0.11363636  0.06818182       0.005
   0.47727273  0.11363636  0.06818182       0.005
   0.15909091  0.15909091  0.06818182       0.002
   0.20454545  0.15909091  0.06818182       0.005
   0.25000000  0.15909091  0.06818182       0.005
   0.29545455  0.15909091  0.06818182       0.005
   0.34090909  0.15909091  0.06818182       0.005
   0.38636364  0.15909091  0.06818182       0.005
   0.43181818  0.15909091  0.06818182       0.005
   0.47727273  0.15909091  0.06818182       0.005
   0.20454545  0.20454545  0.06818182       0.002
   0.25000000  0.20454545  0.06818182       0.005
   0.29545455  0.20454545  0.06818182       0.005
   0.34090909  0.20454545  0.06818182       0.005
   0.38636364  0.20454545  0.06818182       0.005
   0.43181818  0.20454545  0.06818182       0.005
   0.47727273  0.20454545  0.06818182       0.005
   0.25000000  0.25000000  0.06818182       0.002
   0.29545455  0.25000000  0.06818182       0.005
   0.34090909  0.25000000  0.06818182       0.005
   0.38636364  0.25000000  0.06818182       0.005
   0.43181818  0.25000000  0.06818182       0.005
   0.47727273  0.25000000  0.06818182       0.005
   0.29545455  0.29545455  0.06818182       0.002
   0.34090909  0.29545455  0.06818182       0.005
   0.38636364  0.29545455  0.06818182       0.005
   0.43181818  0.29545455  0.06818182       0.005
   0.47727273  0.29545455  0.06818182       0.005
   0.34090909  0.34090909  0.06818182       0.002
   0.38636364  0.34090909  0.06818182       0.005
   0.43181818  0.34090909  0.06818182       0.005
   0.47727273  0.34090909  0.06818182       0.005
   0.38636364  0.38636364  0.06818182       0.002
   0.43181818  0.38636364  0.06818182       0.005
   0.47727273  0.38636364  0.06818182       0.005
   0.43181818  0.43181818  0.06818182       0.002
   0.47727273  0.43181818  0.06818182       0.005
   0.47727273  0.47727273  0.06818182       0.002
   0.11363636  0.11363636  0.11363636       0.001
   0.15909091  0.11363636  0.11363636       0.002
   0.20454545  0.11363636  0.11363636       0.002
   0.25000000  0.11363636  0.11363636       0.002
   0.29545455  0.11363636  0.11363636       0.002
   0.34090909  0.11363636  0.11363636       0.002
   0.38636364  0.11363636  0.11363636       0.002
   0.43181818  0.11363636  0.11363636       0.002
   0.47727273  0.11363636  0.11363636       0.002
   0.15909091  0.15909091  0.11363636       0.002
   0.20454545  0.15909091  0.11363636       0.005
   0.25000000  0.15909091  0.11363636       0.005
   0.29545455  0.15909091  0.11363636       0.005
   0.34090909  0.15909091  0.11363636       0.005
   0.38636364  0.15909091  0.11363636       0.005
   0.43181818  0.15909091  0.11363636       0.005
   0.47727273  0.15909091  0.11363636       0.005
   0.20454545  0.20454545  0.11363636       0.002
   0.25000000  0.20454545  0.11363636       0.005
   0.29545455  0.20454545  0.11363636       0.005
   0.34090909  0.20454545  0.11363636       0.005
   0.38636364  0.20454545  0.11363636       0.005
   0.43181818  0.20454545  0.11363636       0.005
   0.47727273  0.20454545  0.11363636       0.005
   0.25000000  0.25000000  0.11363636       0.002
   0.29545455  0.25000000  0.11363636       0.005
   0.34090909  0.25000000  0.11363636       0.005
   0.38636364  0.25000000  0.11363636       0.005
   0.43181818  0.25000000  0.11363636       0.005
   0.47727273  0.25000000  0.11363636       0.005
   0.29545455  0.29545455  0.11363636       0.002
   0.34090909  0.29545455  0.11363636       0.005
   0.38636364  0.29545455  0.11363636       0.005
   0.43181818  0.29545455  0.11363636       0.005
   0.47727273  0.29545455  0.11363636       0.005
   0.34090909  0.34090909  0.11363636       0.002
   0.38636364  0.34090909  0.11363636       0.005
   0.43181818  0.34090909  0.11363636       0.005
   0.47727273  0.34090909  0.11363636       0.005
   0.38636364  0.38636364  0.11363636       0.002
   0.43181818  0.38636364  0.11363636       0.005
   0.47727273  0.38636364  0.11363636       0.005
   0.43181818  0.43181818  0.11363636       0.002
   0.47727273  0.43181818  0.11363636       0.005
   0.47727273  0.47727273  0.11363636       0.002
   0.15909091  0.15909091  0.15909091       0.001
   0.20454545  0.15909091  0.15909091       0.002
   0.25000000  0.15909091  0.15909091       0.002
   0.29545455  0.15909091  0.15909091       0.002
   0.34090909  0.15909091  0.15909091       0.002
   0.38636364  0.15909091  0.15909091       0.002
   0.43181818  0.15909091  0.15909091       0.002
   0.47727273  0.15909091  0.15909091       0.002
   0.20454545  0.20454545  0.15909091       0.002
   0.25000000  0.20454545  0.15909091       0.005
   0.29545455  0.20454545  0.15909091       0.005
   0.34090909  0.20454545  0.15909091       0.005
   0.38636364  0.20454545  0.15909091       0.005
   0.43181818  0.20454545  0.15909091       0.005
   0.47727273  0.20454545  0.15909091       0.005
   0.25000000  0.25000000  0.15909091       0.002
   0.29545455  0.25000000  0.15909091       0.005
   0.34090909  0.25000000  0.15909091       0.005
   0.38636364  0.25000000  0.15909091       0.005
   0.43181818  0.25000000  0.15909091       0.005
   0.47727273  0.25000000  0.15909091       0.005
   0.29545455  0.29545455  0.15909091       0.002
   0.34090909  0.29545455  0.15909091       0.005
   0.38636364  0.29545455  0.15909091       0.005
   0.43181818  0.29545455  0.15909091       0.005
   0.47727273  0.29545455  0.15909091       0.005
   0.34090909  0.34090909  0.15909091       0.002
   0.38636364  0.34090909  0.15909091       0.005
   0.43181818  0.34090909  0.15909091       0.005
   0.47727273  0.34090909  0.15909091       0.005
   0.38636364  0.38636364  0.15909091       0.002
   0.43181818  0.38636364  0.15909091       0.005
   0.47727273  0.38636364  0.15909091       0.005
   0.43181818  0.43181818  0.15909091       0.002
   0.47727273  0.43181818  0.15909091       0.005
   0.47727273  0.47727273  0.15909091       0.002
   0.20454545  0.20454545  0.20454545       0.001
   0.25000000  0.20454545  0.20454545       0.002
   0.29545455  0.20454545  0.20454545       0.002
   0.34090909  0.20454545  0.20454545       0.002
   0.38636364  0.20454545  0.20454545       0.002
   0.43181818  0.20454545  0.20454545       0.002
   0.47727273  0.20454545  0.20454545       0.002
   0.25000000  0.25000000  0.20454545       0.002
   0.29545455  0.25000000  0.20454545       0.005
   0.34090909  0.25000000  0.20454545       0.005
   0.38636364  0.25000000  0.20454545       0.005
   0.43181818  0.25000000  0.20454545       0.005
   0.47727273  0.25000000  0.20454545       0.005
   0.29545455  0.29545455  0.20454545       0.002
   0.34090909  0.29545455  0.20454545       0.005
   0.38636364  0.29545455  0.20454545       0.005
   0.43181818  0.29545455  0.20454545       0.005
   0.47727273  0.29545455  0.20454545       0.005
   0.34090909  0.34090909  0.20454545       0.002
   0.38636364  0.34090909  0.20454545       0.005
   0.43181818  0.34090909  0.20454545       0.005
   0.47727273  0.34090909  0.20454545       0.005
   0.38636364  0.38636364  0.20454545       0.002
   0.43181818  0.38636364  0.20454545       0.005
   0.47727273  0.38636364  0.20454545       0.005
   0.43181818  0.43181818  0.20454545       0.002
   0.47727273  0.43181818  0.20454545       0.005
   0.47727273  0.47727273  0.20454545       0.002
   0.25000000  0.25000000  0.25000000       0.001
   0.29545455  0.25000000  0.25000000       0.002
   0.34090909  0.25000000  0.25000000       0.002
   0.38636364  0.25000000  0.25000000       0.002
   0.43181818  0.25000000  0.25000000       0.002
   0.47727273  0.25000000  0.25000000       0.002
   0.29545455  0.29545455  0.25000000       0.002
   0.34090909  0.29545455  0.25000000       0.005
   0.38636364  0.29545455  0.25000000       0.005
   0.43181818  0.29545455  0.25000000       0.005
   0.47727273  0.29545455  0.25000000       0.005
   0.34090909  0.34090909  0.25000000       0.002
   0.38636364  0.34090909  0.25000000       0.005
   0.43181818  0.34090909  0.25000000       0.005
   0.47727273  0.34090909  0.25000000       0.005
   0.38636364  0.38636364  0.25000000       0.002
   0.43181818  0.38636364  0.25000000       0.005
   0.47727273  0.38636364  0.25000000       0.005
   0.43181818  0.43181818  0.25000000       0.002
   0.47727273  0.43181818  0.25000000       0.005
   0.47727273  0.47727273  0.25000000       0.002
   0.29545455  0.29545455  0.29545455       0.001
   0.34090909  0.29545455  0.29545455       0.002
   0.38636364  0.29545455  0.29545455       0.002
   0.43181818  0.29545455  0.29545455       0.002
   0.47727273  0.29545455  0.29545455       0.002
   0.34090909  0.34090909  0.29545455       0.002
   0.38636364  0.34090909  0.29545455       0.005
   0.43181818  0.34090909  0.29545455       0.005
   0.47727273  0.34090909  0.29545455       0.005
   0.38636364  0.38636364  0.29545455       0.002
   0.43181818  0.38636364  0.29545455       0.005
   0.47727273  0.38636364  0.29545455       0.005
   0.43181818  0.43181818  0.29545455       0.002
   0.47727273  0.43181818  0.29545455       0.005
   0.47727273  0.47727273  0.29545455       0.002
   0.34090909  0.34090909  0.34090909       0.001
   0.38636364  0.34090909  0.34090909       0.002
   0.43181818  0.34090909  0.34090909       0.002
   0.47727273  0.34090909  0.34090909       0.002
   0.38636364  0.38636364  0.34090909       0.002
   0.43181818  0.38636364  0.34090909       0.005
   0.47727273  0.38636364  0.34090909       0.005
   0.43181818  0.43181818  0.34090909       0.002
   0.47727273  0.43181818  0.34090909       0.005
   0.47727273  0.47727273  0.34090909       0.002
   0.38636364  0.38636364  0.38636364       0.001
   0.43181818  0.38636364  0.38636364       0.002
   0.47727273  0.38636364  0.38636364       0.002
   0.43181818  0.43181818  0.38636364       0.002
   0.47727273  0.43181818  0.38636364       0.005
   0.47727273  0.47727273  0.38636364       0.002
   0.43181818  0.43181818  0.43181818       0.001
   0.47727273  0.43181818  0.43181818       0.002
   0.47727273  0.47727273  0.43181818       0.002
   0.47727273  0.47727273  0.47727273       0.001

 position of ions in fractional coordinates (direct lattice) 
   0.00000000  0.00000000  0.00000000
   0.00000000  0.50000000  0.50000000
   0.50000000  0.00000000  0.50000000
   0.50000000  0.50000000  0.00000000

 position of ions in cartesian coordinates  (Angst):
   0.00000000  0.00000000  0.00000000
  -0.00000000  1.79309092  1.79309092
   1.79309092  0.00000000  1.79309092
   1.79309092  1.79309092  0.00000000



--------------------------------------------------------------------------------------------------------


 k-point   1 :   0.0227 0.0227 0.0227  plane waves:     838
 k-point   2 :   0.0682 0.0227 0.0227  plane waves:     831
 k-point   3 :   0.1136 0.0227 0.0227  plane waves:     836
 k-point   4 :   0.1591 0.0227 0.0227  plane waves:     830
 k-point   5 :   0.2045 0.0227 0.0227  plane waves:     832
 k-point   6 :   0.2500 0.0227 0.0227  plane waves:     838
 k-point   7 :   0.2955 0.0227 0.0227  plane waves:     836
 k-point   8 :   0.3409 0.0227 0.0227  plane waves:     836
 k-point   9 :   0.3864 0.0227 0.0227  plane waves:     835
 k-point  10 :   0.4318 0.0227 0.0227  plane waves:     834
 k-point  11 :   0.4773 0.0227 0.0227  plane waves:     836
 k-point  12 :   0.0682 0.0682 0.0227  plane waves:     835
 k-point  13 :   0.1136 0.0682 0.0227  plane waves:     832
 k-point  14 :   0.1591 0.0682 0.0227  plane waves:     830
 k-point  15 :   0.2045 0.0682 0.0227  plane waves:     830
 k-point  16 :   0.2500 0.0682 0.0227  plane waves:     831
 k-point  17 :   0.2955 0.0682 0.0227  plane waves:     834
 k-point  18 :   0.3409 0.0682 0.0227  plane waves:     837
 k-point  19 :   0.3864 0.0682 0.0227  plane waves:     839
 k-point  20 :   0.4318 0.0682 0.0227  plane waves:     836
 k-point  21 :   0.4773 0.0682 0.0227  plane waves:     835
 k-point  22 :   0.1136 0.1136 0.0227  plane waves:     830
 k-point  23 :   0.1591 0.1136 0.0227  plane waves:     833
 k-point  24 :   0.2045 0.1136 0.0227  plane waves:     833
 k-point  25 :   0.2500 0.1136 0.0227  plane waves:     831
 k-point  26 :   0.2955 0.1136 0.0227  plane waves:     832
 k-point  27 :   0.3409 0.1136 0.0227  plane waves:     838
 k-point  28 :   0.3864 0.1136 0.0227  plane waves:     840
 k-point  29 :   0.4318 0.1136 0.0227  plane waves:     838
 k-point  30 :   0.4773 0.1136 0.0227  plane waves:     838
 k-point  31 :   0.1591 0.1591 0.0227  plane waves:     835
 k-point  32 :   0.2045 0.1591 0.0227  plane waves:     835
 k-point  33 :   0.2500 0.1591 0.0227  plane waves:     838
 k-point  34 :   0.2955 0.1591 0.0227  plane waves:     834
 k-point  35 :   0.3409 0.1591 0.0227  plane waves:     837
 k-point  36 :   0.3864 0.1591 0.0227  plane waves:     837
 k-point  37 :   0.4318 0.1591 0.0227  plane waves:     839
 k-point  38 :   0.4773 0.1591 0.0227  plane waves:     837
 k-point  39 :   0.2045 0.2045 0.0227  plane waves:     830
 k-point  40 :   0.2500 0.2045 0.0227  plane waves:     837
 k-point  41 :   0.2955 0.2045 0.0227  plane waves:     840
 k-point  42 :   0.3409 0.2045 0.0227  plane waves:     842
 k-point  43 :   0.3864 0.2045 0.0227  plane waves:     842
 k-point  44 :   0.4318 0.2045 0.0227  plane waves:     840
 k-point  45 :   0.4773 0.2045 0.0227  plane waves:     838
 k-point  46 :   0.2500 0.2500 0.0227  plane waves:     838
 k-point  47 :   0.2955 0.2500 0.0227  plane waves:     842
 k-point  48 :   0.3409 0.2500 0.0227  plane waves:     841
 k-point  49 :   0.3864 0.2500 0.0227  plane waves:     838
 k-point  50 :   0.4318 0.2500 0.0227  plane waves:     838
 k-point  51 :   0.4773 0.2500 0.0227  plane waves:     835
 k-point  52 :   0.2955 0.2955 0.0227  plane waves:     842
 k-point  53 :   0.3409 0.2955 0.0227  plane waves:     841
 k-point  54 :   0.3864 0.2955 0.0227  plane waves:     841
 k-point  55 :   0.4318 0.2955 0.0227  plane waves:     839
 k-point  56 :   0.4773 0.2955 0.0227  plane waves:     833
 k-point  57 :   0.3409 0.3409 0.0227  plane waves:     842
 k-point  58 :   0.3864 0.3409 0.0227  plane waves:     834
 k-point  59 :   0.4318 0.3409 0.0227  plane waves:     836
 k-point  60 :   0.4773 0.3409 0.0227  plane waves:     833
 k-point  61 :   0.3864 0.3864 0.0227  plane waves:     838
 k-point  62 :   0.4318 0.3864 0.0227  plane waves:     841
 k-point  63 :   0.4773 0.3864 0.0227  plane waves:     837
 k-point  64 :   0.4318 0.4318 0.0227  plane waves:     842
 k-point  65 :   0.4773 0.4318 0.0227  plane waves:     844
 k-point  66 :   0.4773 0.4773 0.0227  plane waves:     846
 k-point  67 :   0.0682 0.0682 0.0682  plane waves:     829
[...]

 k-point   265 :       0.4773    0.4318    0.2955
  band No.  band energies     occupation 
      1       4.0342      2.00000
      2       4.5188      2.00000
      3       5.4656      2.00000
      4       5.9170      2.00000
      5       8.6078      2.00000
      6       9.0505      2.00000
      7       9.9716      2.00000
      8      10.4394      2.00000
      9      20.8730      0.00000
     10      21.2619      0.00000
     11      22.1612      0.00000
     12      22.6545      0.00000
     13      23.8905      0.00000
     14      24.0501      0.00000

 k-point   266 :       0.4773    0.4773    0.2955
  band No.  band energies     occupation 
      1       4.4745      2.00000
      2       4.9530      2.00000
      3       4.9530      2.00000
      4       5.4220      2.00000
      5       9.0082      2.00000
      6       9.4656      2.00000
      7       9.4656      2.00000
      8       9.9298      2.00000
      9      21.3062      0.00000
     10      21.7365      0.00000
     11      21.7365      0.00000
     12      22.1973      0.00000
     13      24.6363      0.00000
     14      24.7619      0.00000

 k-point   267 :       0.3409    0.3409    0.3409
  band No.  band energies     occupation 
      1       2.3733      2.00000
      2       5.7701      2.00000
      3       5.7701      2.00000
      4       5.7701      2.00000
      5       9.3458      2.00000
      6       9.3458      2.00000
      7       9.3458      2.00000
      8      12.6111     -0.02532
      9      20.1703      0.00000
     10      20.1703      0.00000
     11      20.1703      0.00000
     12      22.9557      0.00000
     13      22.9557      0.00000
     14      22.9557      0.00000

 k-point   268 :       0.3864    0.3409    0.3409
  band No.  band energies     occupation 
      1       2.7359      2.00000
      2       5.1725      2.00000
      3       6.0894      2.00000
      4       6.0894      2.00000
      5       8.7793      2.00000
      6       8.7793      2.00000
      7       9.6762      2.00000
      8      12.0179      2.06688
      9      20.4713      0.00000
     10      20.4713      0.00000
     11      21.3140      0.00000
     12      23.0291      0.00000
     13      23.0291      0.00000
     14      23.2366      0.00000

 k-point   269 :       0.4318    0.3409    0.3409
  band No.  band energies     occupation 
      1       3.1416      2.00000
      2       4.6073      2.00000
      3       6.4143      2.00000
      4       6.4143      2.00000
      5       8.2892      2.00000
      6       8.2892      2.00000
      7      10.0561      2.00000
      8      11.4644      2.00000
      9      20.7236      0.00000
     10      20.7236      0.00000
     11      22.4522      0.00000
     12      22.8826      0.00000
     13      22.8826      0.00000
     14      23.5525      0.00000

 k-point   270 :       0.4773    0.3409    0.3409
  band No.  band energies     occupation 
      1       3.5896      2.00000
      2       4.0788      2.00000
      3       6.6683      2.00000
      4       6.6683      2.00000
      5       7.9524      2.00000
      6       7.9524      2.00000
      7      10.4820      2.00000
      8      10.9520      2.00000
      9      20.8806      0.00000
     10      20.8806      0.00000
     11      22.7461      0.00000
     12      22.7461      0.00000
     13      23.5544      0.00000
     14      23.9066      0.00000

 k-point   271 :       0.3864    0.3864    0.3409
  band No.  band energies     occupation 
      1       3.0965      2.00000
      2       5.5091      2.00000
      3       5.5091      2.00000
      4       6.3715      2.00000
      5       8.2468      2.00000
      6       9.0947      2.00000
      7       9.0947      2.00000
      8      11.4242      2.00000
      9      20.8451      0.00000
     10      21.5792      0.00000
     11      21.5792      0.00000
     12      23.3529      0.00000
     13      23.3529      0.00000
     14      23.5284      0.00000

 k-point   272 :       0.4318    0.3864    0.3409
  band No.  band energies     occupation 
      1       3.4999      2.00000
      2       4.9530      2.00000
      3       5.8736      2.00000
      4       6.5836      2.00000
      5       7.8661      2.00000
      6       8.5672      2.00000
      7       9.4677      2.00000
      8      10.8705      2.00000
      9      21.1849      0.00000
     10      21.7189      0.00000
     11      22.6278      0.00000
     12      23.3248      0.00000
     13      23.6336      0.00000
     14      23.7623      0.00000

 k-point   273 :       0.4773    0.3864    0.3409
  band No.  band energies     occupation 
      1       3.9450      2.00000
      2       4.4302      2.00000
      3       6.2434      2.00000
      4       6.5415      2.00000
      5       7.8222      2.00000
      6       8.1174      2.00000
      7       9.8902      2.00000
      8      10.3587      2.00000
      9      21.4794      0.00000
     10      21.6807      0.00000
     11      23.3644      0.00000
     12      23.4831      0.00000
     13      23.5068      0.00000
     14      24.0696      0.00000

 k-point   274 :       0.4318    0.4318    0.3409
  band No.  band energies     occupation 
      1       3.9004      2.00000
      2       5.3347      2.00000
      3       5.3347      2.00000
      4       6.4992      2.00000
      5       7.7786      2.00000
      6       8.9256      2.00000
      7       8.9256      2.00000
      8      10.3174      2.00000
      9      21.5920      0.00000
     10      22.5529      0.00000
     11      22.5529      0.00000
     12      23.9472      0.00000
     13      23.9565      0.00000
     14      24.1359      0.00000

 k-point   275 :       0.4773    0.4318    0.3409
  band No.  band energies     occupation 
      1       4.3415      2.00000
      2       4.8210      2.00000
      3       5.7439      2.00000
      4       6.1578      2.00000
      5       8.0309      2.00000
      6       8.4390      2.00000
      7       9.3416      2.00000
      8       9.8068      2.00000
      9      21.9678      0.00000
     10      22.3030      0.00000
     11      23.1803      0.00000
     12      23.6838      0.00000
     13      24.1515      0.00000
     14      24.2845      0.00000

 k-point   276 :       0.4773    0.4773    0.3409
  band No.  band energies     occupation 
      1       4.7769      2.00000
      2       5.2473      2.00000
      3       5.2473      2.00000
      4       5.7006      2.00000
      5       8.3961      2.00000
      6       8.8407      2.00000
      7       8.8407      2.00000
      8       9.2994      2.00000
      9      22.4030      0.00000
     10      22.8085      0.00000
     11      22.8085      0.00000
     12      23.2610      0.00000
     13      24.8352      0.00000
     14      24.9450      0.00000

 k-point   277 :       0.3864    0.3864    0.3864
  band No.  band energies     occupation 
      1       3.4551      2.00000
      2       5.8303      2.00000
      3       5.8303      2.00000
      4       5.8303      2.00000
      5       8.5251      2.00000
      6       8.5251      2.00000
      7       8.5251      2.00000
      8      10.8301      2.00000
      9      21.9782      0.00000
     10      21.9782      0.00000
     11      21.9782      0.00000
     12      23.8007      0.00000
     13      23.8007      0.00000
     14      23.8008      0.00000

 k-point   278 :       0.4318    0.3864    0.3864
  band No.  band energies     occupation 
      1       3.8558      2.00000
      2       5.2910      2.00000
      3       6.1576      2.00000
      4       6.1576      2.00000
      5       8.0316      2.00000
      6       8.0316      2.00000
      7       8.8837      2.00000
      8      10.2766      2.00000
      9      22.2800      0.00000
     10      22.2800      0.00000
     11      23.0963      0.00000
     12      23.9388      0.00000
     13      23.9389      0.00000
     14      24.1038      0.00000

 k-point   279 :       0.4773    0.3864    0.3864
  band No.  band energies     occupation 
      1       4.2972      2.00000
      2       4.7770      2.00000
      3       6.4145      2.00000
      4       6.4145      2.00000
      5       7.6916      2.00000
      6       7.6916      2.00000
      7       9.3001      2.00000
      8       9.7657      2.00000
      9      22.4617      0.00000
     10      22.4617      0.00000
     11      23.9092      0.00000
     12      23.9110      0.00000
     13      24.1579      0.00000
     14      24.4431      0.00000

 k-point   280 :       0.4318    0.4318    0.3864
  band No.  band energies     occupation 
      1       4.2528      2.00000
      2       5.6571      2.00000
      3       5.6571      2.00000
      4       6.3721      2.00000
      5       7.6478      2.00000
      6       8.3539      2.00000
      7       8.3539      2.00000
      8       9.7241      2.00000
      9      22.7064      0.00000
     10      23.3049      0.00000
     11      23.3049      0.00000
     12      24.3204      0.00000
     13      24.3205      0.00000
     14      24.4121      0.00000

 k-point   281 :       0.4773    0.4318    0.3864
  band No.  band energies     occupation 
      1       4.6888      2.00000
      2       5.1598      2.00000
      3       6.0292      2.00000
      4       6.3299      2.00000
      5       7.6037      2.00000
      6       7.9015      2.00000
      7       8.7562      2.00000
      8       9.2157      2.00000
      9      23.0410      0.00000
     10      23.2663      0.00000
     11      24.1098      0.00000
     12      24.4731      0.00000
     13      24.5641      0.00000
     14      24.6556      0.00000

 k-point   282 :       0.4773    0.4773    0.3864
  band No.  band energies     occupation 
      1       5.1160      2.00000
      2       5.5705      2.00000
      3       5.5705      2.00000
      4       5.9863      2.00000
      5       7.8580      2.00000
      6       8.2679      2.00000
      7       8.2679      2.00000
      8       8.7136      2.00000
      9      23.4825      0.00000
     10      23.8403      0.00000
     11      23.8403      0.00000
     12      24.2742      0.00000
     13      25.0412      0.00000
     14      25.1270      0.00000

 k-point   283 :       0.4318    0.4318    0.4318
  band No.  band energies     occupation 
      1       4.6447      2.00000
      2       5.9862      2.00000
      3       5.9862      2.00000
      4       5.9862      2.00000
      5       7.8582      2.00000
      6       7.8582      2.00000
      7       7.8582      2.00000
      8       9.1736      2.00000
      9      23.7874      0.00000
     10      23.7874      0.00000
     11      23.7874      0.00000
     12      24.6874      0.00000
     13      24.6875      0.00000
     14      24.6898      0.00000

 k-point   284 :       0.4773    0.4318    0.4318
  band No.  band energies     occupation 
      1       5.0722      2.00000
      2       5.5270      2.00000
      3       6.2453      2.00000
      4       6.2453      2.00000
      5       7.5157      2.00000
      6       7.5157      2.00000
      7       8.2250      2.00000
      8       8.6712      2.00000
      9      24.0247      0.00000
     10      24.0248      0.00000
     11      24.7636      0.00000
     12      24.8685      0.00000
     13      24.8731      0.00000
     14      24.9835      0.00000

 k-point   285 :       0.4773    0.4773    0.4318
  band No.  band energies     occupation 
      1       5.4837      2.00000
      2       5.9005      2.00000
      3       5.9005      2.00000
      4       6.2030      2.00000
      5       7.4715      2.00000
      6       7.7710      2.00000
      7       7.7710      2.00000
      8       8.1820      2.00000
      9      24.4900      0.00000
     10      24.7445      0.00000
     11      24.7450      0.00000
     12      25.1456      0.00000
     13      25.2533      0.00000
     14      25.2872      0.00000

 k-point   286 :       0.4773    0.4773    0.4773
  band No.  band energies     occupation 
      1       5.8576      2.00000
      2       6.1607      2.00000
      3       6.1607      2.00000
      4       6.1607      2.00000
      5       7.4273      2.00000
      6       7.4273      2.00000
      7       7.4273      2.00000
      8       7.7274      2.00000
      9      25.2860      0.00000
     10      25.2954      0.00000
     11      25.3063      0.00000
     12      25.4300      0.00000
     13      25.4311      0.00000
     14      25.4521      0.00000


--------------------------------------------------------------------------------------------------------


 soft charge-density along one line, spin component           1
         0         1         2         3         4         5         6         7         8         9
 total charge-density along one line

 pseudopotential strength for first ion, spin component:           1
  8.322  14.174  -0.000  -0.000   0.000  -0.000  -0.000  -0.000
 14.174  24.142  -0.000  -0.000  -0.000  -0.000  -0.000  -0.000
 -0.000  -0.000   2.013   0.000   0.000   5.766   0.000   0.000
 -0.000  -0.000   0.000   2.013  -0.000   0.000   5.766  -0.000
  0.000  -0.000   0.000  -0.000   2.013   0.000  -0.000   5.766
 -0.000  -0.000   5.766   0.000   0.000  16.450   0.000   0.000
 -0.000  -0.000   0.000   5.766  -0.000   0.000  16.450  -0.000
 -0.000  -0.000   0.000  -0.000   5.766   0.000  -0.000  16.450
 total augmentation occupancy for first ion, spin component:           1
  5.449  -1.730   0.000  -0.000   0.000   0.000   0.000   0.000
 -1.730   0.607   0.000   0.000  -0.000   0.000   0.000   0.000
  0.000   0.000   1.741   0.000  -0.000  -0.130  -0.000   0.000
 -0.000   0.000   0.000   1.741   0.000  -0.000  -0.130  -0.000
  0.000  -0.000  -0.000   0.000   1.741   0.000  -0.000  -0.130
  0.000   0.000  -0.130  -0.000   0.000   0.011   0.000  -0.000
  0.000   0.000  -0.000  -0.130  -0.000   0.000   0.011   0.000
  0.000   0.000   0.000  -0.000  -0.130  -0.000   0.000   0.011


------------------------ aborting loop because EDIFF is reached ----------------------------------------


    CHARGE:  cpu time      0.4193: real time      0.2105
    FORLOC:  cpu time      0.0003: real time      0.0003
    FORNL :  cpu time      2.7645: real time      1.4068
    STRESS:  cpu time      8.1033: real time      4.0590
    FORCOR:  cpu time      0.0255: real time      0.0135
    FORHAR:  cpu time      0.0073: real time      0.0040
    MIXING:  cpu time      0.0006: real time      0.0006
    OFIELD:  cpu time      0.0000: real time      0.0000

  FORCE on cell =-STRESS in cart. coord.  units (eV):
  Direction    XX          YY          ZZ          XY          YZ          ZX
  --------------------------------------------------------------------------------------
  Alpha Z    -1.16522    -1.16522    -1.16522
  Ewald    -110.45910  -110.45910  -110.45910    -0.00000     0.00000     0.00000
  Hartree     0.30985     0.30985     0.30985    -0.00000    -0.00000    -0.00000
  E(xc)     -39.00856   -39.00856   -39.00856     0.00000     0.00000     0.00000
  Local       6.24341     6.24341     6.24341    -0.00000     0.00000     0.00000
  n-local    86.25798    87.64489    91.80955     1.21277     2.82706     1.21074
  augment    -3.56733    -3.56733    -3.56733     0.00000     0.00000     0.00000
  Kinetic    73.16609    75.45984    81.41610     1.99788   -10.09002    -1.51065
  Fock        0.00000     0.00000     0.00000     0.00000     0.00000     0.00000
  -------------------------------------------------------------------------------------
  Total      17.60453    17.60453    17.60453    -0.00000     0.00000     0.00000
  in kB     611.55870   611.55870   611.55870    -0.00000     0.00000     0.00000
  external pressure =      611.56 kB  Pullay stress =        0.00 kB


 VOLUME and BASIS-vectors are now :
 -----------------------------------------------------------------------------
  energy-cutoff  :      400.00
  volume of cell :       46.12
      direct lattice vectors                 reciprocal lattice vectors
     3.586181837  0.000000000  0.000000000     0.278848102  0.000000000 -0.000000000
    -0.000000000  3.586181837  0.000000000     0.000000000  0.278848102  0.000000000
     0.000000000  0.000000000  3.586181837    -0.000000000 -0.000000000  0.278848102

  length of vectors
     3.586181837  3.586181837  3.586181837     0.278848102  0.278848102  0.278848102


 FORCES acting on ions
    electron-ion (+dipol)            ewald-force                    non-local-force                 convergence-correction
 -----------------------------------------------------------------------------------------------
   -.813E-16 0.153E-15 0.444E-15   0.131E-14 0.550E-15 -.609E-17   -.392E-25 0.107E-24 0.566E-25   0.158E-14 0.241E-17 0.359E-16
   0.148E-14 -.407E-14 -.259E-14   0.137E-14 0.256E-15 0.387E-15   0.642E-26 -.336E-25 -.197E-25   0.158E-14 -.833E-17 -.640E-17
   -.382E-14 -.104E-14 0.298E-13   -.153E-14 -.124E-15 0.414E-15   0.246E-25 -.376E-26 -.527E-25   -.158E-14 -.404E-17 -.161E-16
   -.461E-14 0.277E-13 0.472E-13   -.146E-14 -.417E-15 -.895E-15   0.153E-26 -.150E-24 -.131E-25   -.159E-14 -.508E-17 0.309E-16
 -----------------------------------------------------------------------------------------------
   -.703E-14 0.227E-13 0.749E-13   -.305E-15 0.265E-15 -.997E-16   -.671E-26 -.805E-25 -.289E-25   -.784E-17 -.150E-16 0.442E-16


 POSITION                                       TOTAL-FORCE (eV/Angst)
 -----------------------------------------------------------------------------------
      0.00000      0.00000      0.00000         0.000000     -0.000000      0.000000
     -0.00000      1.79309      1.79309        -0.000000      0.000000      0.000000
      1.79309      0.00000      1.79309        -0.000000     -0.000000      0.000000
      1.79309      1.79309      0.00000         0.000000     -0.000000     -0.000000
 -----------------------------------------------------------------------------------
    total drift:                               -0.000000      0.000000      0.000000


--------------------------------------------------------------------------------------------------------



  FREE ENERGIE OF THE ION-ELECTRON SYSTEM (eV)
  ---------------------------------------------------
  free  energy   TOTEN  =       -12.22346174 eV

  energy  without entropy=      -12.22295334  energy(sigma->0) =      -12.22329227



--------------------------------------------------------------------------------------------------------


    POTLOK:  cpu time      0.0383: real time      0.0183


--------------------------------------------------------------------------------------------------------




--------------------------------------------------------------------------------------------------------


  
 reached required accuracy - stopping structural energy minimisation
     LOOP+:  cpu time    135.3624: real time     68.4278
    4ORBIT:  cpu time      0.0000: real time      0.0000

 total amount of memory used by VASP MPI-rank0    36692. kBytes
=======================================================================

   base      :      30000. kBytes
   nonlr-proj:       1132. kBytes
   fftplans  :        368. kBytes
   grid      :       1016. kBytes
   one-center:         12. kBytes
   wavefun   :       4164. kBytes

  
  
 General timing and accounting informations for this job:
 ========================================================
  
                  Total CPU time used (sec):      139.204
                            User time (sec):      137.321
                          System time (sec):        1.883
                         Elapsed time (sec):       71.670
  
                   Maximum memory used (kb):       58684.
                   Average memory used (kb):          N/A
  
                          Minor page faults:        28806
                          Major page faults:           16
                 Voluntary context switches:         2027
