<?xml version="1.0" encoding="ISO-8859-1"?>
<modeling>
 <generator>
  <i name="program" type="string">vasp </i>
  <i name="version" type="string">6.4.2  </i>
  <i name="subversion" type="string">20Jul23 (build Apr 22 2024 22:35:45) complex                          parallel </i>
  <i name="platform" type="string">LinuxGNU </i>
  <i name="date" type="string">2024 05 26 </i>
  <i name="time" type="string">15:39:50 </i>
 </generator>
 <incar>
  <i type="string" name="SYSTEM">Al fcc relaxation</i>
  <i type="string" name="PREC">Accurate</i>
  <i type="string" name="ALGO">Fast</i>
  <i type="int" name="NELM">    60</i>
  <i type="int" name="NELMIN">     4</i>
  <i type="int" name="IBRION">     2</i>
  <i name="EDIFF">      0.00000100</i>
  <i type="int" name="NSW">   100</i>
  <i type="int" name="ISIF">     4</i>
  <i name="ENCUT">    400.00000000</i>
  <i type="string" name="LREAL">Auto</i>
  <i type="int" name="ISMEAR">     1</i>
  <i name="SIGMA">      0.20000000</i>
  <i name="KSPACING">      0.08000000</i>
  <i type="logical" name="LWAVE"> F  </i>
  <i type="logical" name="LCHARG"> F  </i>
 </incar>
 <primitive_cell>
  <structure name="primitive_cell" >
   <crystal>
    <varray name="basis" >
     <v>       1.79309092      -1.79309092       0.00000000 </v>
     <v>       1.79309092       0.00000000       1.79309092 </v>
     <v>       0.00000000      -1.79309092       1.79309092 </v>
    </varray>
    <i name="volume">     11.53020234 </i>
    <varray name="rec_basis" >
     <v>       0.27884810      -0.27884810      -0.27884810 </v>
     <v>       0.27884810       0.27884810       0.27884810 </v>
     <v>      -0.27884810      -0.27884810       0.27884810 </v>
    </varray>
   </crystal>
   <varray name="positions" >
    <v>       0.00000000       0.00000000       0.00000000 </v>
   </varray>
  </structure>
  <varray name="primitive_index" >
   <v type="int" >        1 </v>
  </varray>
 </primitive_cell>
 <kpoints>
  <generation param="Monkhorst-Pack">
   <v type="int" name="divisions">      22       22       22 </v>
   <v name="usershift">      0.00000000       0.00000000       0.00000000 </v>
   <v name="genvec1">      0.04545455       0.00000000       0.00000000 </v>
   <v name="genvec2">      0.00000000       0.04545455       0.00000000 </v>
   <v name="genvec3">     -0.00000000      -0.00000000       0.04545455 </v>
   <v name="shift">      0.50000000       0.50000000       0.50000000 </v>
  </generation>
  <varray name="kpointlist" >
   <v>       0.02272727       0.02272727       0.02272727 </v>
   <v>       0.06818182       0.02272727       0.02272727 </v>
   <v>       0.11363636       0.02272727       0.02272727 </v>
   <v>       0.15909091       0.02272727       0.02272727 </v>
   <v>       0.20454545       0.02272727       0.02272727 </v>
   <v>       0.25000000       0.02272727       0.02272727 </v>
   <v>       0.29545455       0.02272727       0.02272727 </v>
   <v>       0.34090909       0.02272727       0.02272727 </v>
   <v>       0.38636364       0.02272727       0.02272727 </v>
   <v>       0.43181818       0.02272727       0.02272727 </v>
   <v>       0.47727273       0.02272727       0.02272727 </v>
   <v>       0.06818182       0.06818182       0.02272727 </v>
   <v>       0.11363636       0.06818182       0.02272727 </v>
   <v>       0.15909091       0.06818182       0.02272727 </v>
   <v>       0.20454545       0.06818182       0.02272727 </v>
   <v>       0.25000000       0.06818182       0.02272727 </v>
   <v>       0.29545455       0.06818182       0.02272727 </v>
   <v>       0.34090909       0.06818182       0.02272727 </v>
   <v>       0.38636364       0.06818182       0.02272727 </v>
   <v>       0.43181818       0.06818182       0.02272727 </v>
   <v>       0.47727273       0.06818182       0.02272727 </v>
   <v>       0.11363636       0.11363636       0.02272727 </v>
   <v>       0.15909091       0.11363636       0.02272727 </v>
   <v>       0.20454545       0.11363636       0.02272727 </v>
   <v>       0.25000000       0.11363636       0.02272727 </v>
   <v>       0.29545455       0.11363636       0.02272727 </v>
   <v>       0.34090909       0.11363636       0.02272727 </v>
   <v>       0.38636364       0.11363636       0.02272727 </v>
   <v>       0.43181818       0.11363636       0.02272727 </v>
   <v>       0.47727273       0.11363636       0.02272727 </v>
   <v>       0.15909091       0.15909091       0.02272727 </v>
   <v>       0.20454545       0.15909091       0.02272727 </v>
   <v>       0.25000000       0.15909091       0.02272727 </v>
   <v>       0.29545455       0.15909091       0.02272727 </v>
   <v>       0.34090909       0.15909091       0.02272727 </v>
   <v>       0.38636364       0.15909091       0.02272727 </v>
   <v>       0.43181818       0.15909091       0.02272727 </v>
   <v>       0.47727273       0.15909091       0.02272727 </v>
   <v>       0.20454545       0.20454545       0.02272727 </v>
   <v>       0.25000000       0.20454545       0.02272727 </v>
   <v>       0.29545455       0.20454545       0.02272727 </v>
   <v>       0.34090909       0.20454545       0.02272727 </v>
   <v>       0.38636364       0.20454545       0.02272727 </v>
   <v>       0.43181818       0.20454545       0.02272727 </v>
   <v>       0.47727273       0.20454545       0.02272727 </v>
   <v>       0.25000000       0.25000000       0.02272727 </v>
   <v>       0.29545455       0.25000000       0.02272727 </v>
   <v>       0.34090909       0.25000000       0.02272727 </v>
   <v>       0.38636364       0.25000000       0.02272727 </v>
   <v>       0.43181818       0.25000000       0.02272727 </v>
   <v>       0.47727273       0.25000000       0.02272727 </v>
   <v>       0.29545455       0.29545455       0.02272727 </v>
   <v>       0.34090909       0.29545455       0.02272727 </v>
   <v>       0.38636364       0.29545455       0.02272727 </v>
   <v>       0.43181818       0.29545455       0.02272727 </v>
   <v>       0.47727273       0.29545455       0.02272727 </v>
   <v>       0.34090909       0.34090909       0.02272727 </v>
   <v>       0.38636364       0.34090909       0.02272727 </v>
   <v>       0.43181818       0.34090909       0.02272727 </v>
   <v>       0.47727273       0.34090909       0.02272727 </v>
   <v>       0.38636364       0.38636364       0.02272727 </v>
   <v>       0.43181818       0.38636364       0.02272727 </v>
   <v>       0.47727273       0.38636364       0.02272727 </v>
   <v>       0.43181818       0.43181818       0.02272727 </v>
   <v>       0.47727273       0.43181818       0.02272727 </v>
   <v>       0.47727273       0.47727273       0.02272727 </v>
   <v>       0.06818182       0.06818182       0.06818182 </v>
   <v>       0.11363636       0.06818182       0.06818182 </v>
   <v>       0.15909091       0.06818182       0.06818182 </v>
   <v>       0.20454545       0.06818182       0.06818182 </v>
   <v>       0.25000000       0.06818182       0.06818182 </v>
   <v>       0.29545455       0.06818182       0.06818182 </v>
   <v>       0.34090909       0.06818182       0.06818182 </v>
   <v>       0.38636364       0.06818182       0.06818182 </v>
   <v>       0.43181818       0.06818182       0.06818182 </v>
   <v>       0.47727273       0.06818182       0.06818182 </v>
   <v>       0.11363636       0.11363636       0.06818182 </v>
   <v>       0.15909091       0.11363636       0.06818182 </v>
   <v>       0.20454545       0.11363636       0.06818182 </v>
   <v>       0.25000000       0.11363636       0.06818182 </v>
   <v>       0.29545455       0.11363636       0.06818182 </v>
   <v>       0.34090909       0.11363636       0.06818182 </v>
   <v>       0.38636364       0.11363636       0.06818182 </v>
   <v>       0.43181818       0.11363636       0.06818182 </v>
   <v>       0.47727273       0.11363636       0.06818182 </v>
   <v>       0.15909091       0.15909091       0.06818182 </v>
   <v>       0.20454545       0.15909091       0.06818182 </v>
   <v>       0.25000000       0.15909091       0.06818182 </v>
   <v>       0.29545455       0.15909091       0.06818182 </v>
   <v>       0.34090909       0.15909091       0.06818182 </v>
   <v>       0.38636364       0.15909091       0.06818182 </v>
   <v>       0.43181818       0.15909091       0.06818182 </v>
   <v>       0.47727273       0.15909091       0.06818182 </v>
   <v>       0.20454545       0.20454545       0.06818182 </v>
   <v>       0.25000000       0.20454545       0.06818182 </v>
   <v>       0.29545455       0.20454545       0.06818182 </v>
   <v>       0.34090909       0.20454545       0.06818182 </v>
   <v>       0.38636364       0.20454545       0.06818182 </v>
   <v>       0.43181818       0.20454545       0.06818182 </v>
   <v>       0.47727273       0.20454545       0.06818182 </v>
   <v>       0.25000000       0.25000000       0.06818182 </v>
   <v>       0.29545455       0.25000000       0.06818182 </v>
   <v>       0.34090909       0.25000000       0.06818182 </v>
   <v>       0.38636364       0.25000000       0.06818182 </v>
   <v>       0.43181818       0.25000000       0.06818182 </v>
   <v>       0.47727273       0.25000000       0.06818182 </v>
   <v>       0.29545455       0.29545455       0.06818182 </v>
   <v>       0.34090909       0.29545455       0.06818182 </v>
   <v>       0.38636364       0.29545455       0.06818182 </v>
   <v>       0.43181818       0.29545455       0.06818182 </v>
   <v>       0.47727273       0.29545455       0.06818182 </v>
   <v>       0.34090909       0.34090909       0.06818182 </v>
   <v>       0.38636364       0.34090909       0.06818182 </v>
   <v>       0.43181818       0.34090909       0.06818182 </v>
   <v>       0.47727273       0.34090909       0.06818182 </v>
   <v>       0.38636364       0.38636364       0.06818182 </v>
   <v>       0.43181818       0.38636364       0.06818182 </v>
   <v>       0.47727273       0.38636364       0.06818182 </v>
   <v>       0.43181818       0.43181818       0.06818182 </v>
   <v>       0.47727273       0.43181818       0.06818182 </v>
   <v>       0.47727273       0.47727273       0.06818182 </v>
   <v>       0.11363636       0.11363636       0.11363636 </v>
   <v>       0.15909091       0.11363636       0.11363636 </v>
   <v>       0.20454545       0.11363636       0.11363636 </v>
   <v>       0.25000000       0.11363636       0.11363636 </v>
   <v>       0.29545455       0.11363636       0.11363636 </v>
   <v>       0.34090909       0.11363636       0.11363636 </v>
   <v>       0.38636364       0.11363636       0.11363636 </v>
   <v>       0.43181818       0.11363636       0.11363636 </v>
   <v>       0.47727273       0.11363636       0.11363636 </v>
   <v>       0.15909091       0.15909091       0.11363636 </v>
   <v>       0.20454545       0.15909091       0.11363636 </v>
   <v>       0.25000000       0.15909091       0.11363636 </v>
   <v>       0.29545455       0.15909091       0.11363636 </v>
   <v>       0.34090909       0.15909091       0.11363636 </v>
   <v>       0.38636364       0.15909091       0.11363636 </v>
   <v>       0.43181818       0.15909091       0.11363636 </v>
   <v>       0.47727273       0.15909091       0.11363636 </v>
   <v>       0.20454545       0.20454545       0.11363636 </v>
   <v>       0.25000000       0.20454545       0.11363636 </v>
   <v>       0.29545455       0.20454545       0.11363636 </v>
   <v>       0.34090909       0.20454545       0.11363636 </v>
   <v>       0.38636364       0.20454545       0.11363636 </v>
   <v>       0.43181818       0.20454545       0.11363636 </v>
   <v>       0.47727273       0.20454545       0.11363636 </v>
   <v>       0.25000000       0.25000000       0.11363636 </v>
   <v>       0.29545455       0.25000000       0.11363636 </v>
   <v>       0.34090909       0.25000000       0.11363636 </v>
   <v>       0.38636364       0.25000000       0.11363636 </v>
   <v>       0.43181818       0.25000000       0.11363636 </v>
   <v>       0.47727273       0.25000000       0.11363636 </v>
   <v>       0.29545455       0.29545455       0.11363636 </v>
   <v>       0.34090909       0.29545455       0.11363636 </v>
   <v>       0.38636364       0.29545455       0.11363636 </v>
   <v>       0.43181818       0.29545455       0.11363636 </v>
   <v>       0.47727273       0.29545455       0.11363636 </v>
   <v>       0.34090909       0.34090909       0.11363636 </v>
   <v>       0.38636364       0.34090909       0.11363636 </v>
   <v>       0.43181818       0.34090909       0.11363636 </v>
   <v>       0.47727273       0.34090909       0.11363636 </v>
   <v>       0.38636364       0.38636364       0.11363636 </v>
   <v>       0.43181818       0.38636364       0.11363636 </v>
   <v>       0.47727273       0.38636364       0.11363636 </v>
   <v>       0.43181818       0.43181818       0.11363636 </v>
   <v>       0.47727273       0.43181818       0.11363636 </v>
   <v>       0.47727273       0.47727273       0.11363636 </v>
   <v>       0.15909091       0.15909091       0.15909091 </v>
   <v>       0.20454545       0.15909091       0.15909091 </v>
   <v>       0.25000000       0.15909091       0.15909091 </v>
   <v>       0.29545455       0.15909091       0.15909091 </v>
   <v>       0.34090909       0.15909091       0.15909091 </v>
   <v>       0.38636364       0.15909091       0.15909091 </v>
   <v>       0.43181818       0.15909091       0.15909091 </v>
   <v>       0.47727273       0.15909091       0.15909091 </v>
   <v>       0.20454545       0.20454545       0.15909091 </v>
   <v>       0.25000000       0.20454545       0.15909091 </v>
   <v>       0.29545455       0.20454545       0.15909091 </v>
   <v>       0.34090909       0.20454545       0.15909091 </v>
   <v>       0.38636364       0.20454545       0.15909091 </v>
   <v>       0.43181818       0.20454545       0.15909091 </v>
   <v>       0.47727273       0.20454545       0.15909091 </v>
   <v>       0.25000000       0.25000000       0.15909091 </v>
   <v>       0.29545455       0.25000000       0.15909091 </v>
   <v>       0.34090909       0.25000000       0.15909091 </v>
   <v>       0.38636364       0.25000000       0.15909091 </v>
   <v>       0.43181818       0.25000000       0.15909091 </v>
   <v>       0.47727273       0.25000000       0.15909091 </v>
   <v>       0.29545455       0.29545455       0.15909091 </v>
   <v>       0.34090909       0.29545455       0.15909091 </v>
   <v>       0.38636364       0.29545455       0.15909091 </v>
   <v>       0.43181818       0.29545455       0.15909091 </v>
   <v>       0.47727273       0.29545455       0.15909091 </v>
   <v>       0.34090909       0.34090909       0.15909091 </v>
   <v>       0.38636364       0.34090909       0.15909091 </v>
   <v>       0.43181818       0.34090909       0.15909091 </v>
   <v>       0.47727273       0.34090909       0.15909091 </v>
   <v>       0.38636364       0.38636364       0.15909091 </v>
   <v>       0.43181818       0.38636364       0.15909091 </v>
   <v>       0.47727273       0.38636364       0.15909091 </v>
   <v>       0.43181818       0.43181818       0.15909091 </v>
   <v>       0.47727273       0.43181818       0.15909091 </v>
   <v>       0.47727273       0.47727273       0.15909091 </v>
   <v>       0.20454545       0.20454545       0.20454545 </v>
   <v>       0.25000000       0.20454545       0.20454545 </v>
   <v>       0.29545455       0.20454545       0.20454545 </v>
   <v>       0.34090909       0.20454545       0.20454545 </v>
   <v>       0.38636364       0.20454545       0.20454545 </v>
   <v>       0.43181818       0.20454545       0.20454545 </v>
   <v>       0.47727273       0.20454545       0.20454545 </v>
   <v>       0.25000000       0.25000000       0.20454545 </v>
   <v>       0.29545455       0.25000000       0.20454545 </v>
   <v>       0.34090909       0.25000000       0.20454545 </v>
   <v>       0.38636364       0.25000000       0.20454545 </v>
   <v>       0.43181818       0.25000000       0.20454545 </v>
   <v>       0.47727273       0.25000000       0.20454545 </v>
   <v>       0.29545455       0.29545455       0.20454545 </v>
   <v>       0.34090909       0.29545455       0.20454545 </v>
   <v>       0.38636364       0.29545455       0.20454545 </v>
   <v>       0.43181818       0.29545455       0.20454545 </v>
   <v>       0.47727273       0.29545455       0.20454545 </v>
   <v>       0.34090909       0.34090909       0.20454545 </v>
   <v>       0.38636364       0.34090909       0.20454545 </v>
   <v>       0.43181818       0.34090909       0.20454545 </v>
   <v>       0.47727273       0.34090909       0.20454545 </v>
   <v>       0.38636364       0.38636364       0.20454545 </v>
   <v>       0.43181818       0.38636364       0.20454545 </v>
   <v>       0.47727273       0.38636364       0.20454545 </v>
   <v>       0.43181818       0.43181818       0.20454545 </v>
   <v>       0.47727273       0.43181818       0.20454545 </v>
   <v>       0.47727273       0.47727273       0.20454545 </v>
   <v>       0.25000000       0.25000000       0.25000000 </v>
   <v>       0.29545455       0.25000000       0.25000000 </v>
   <v>       0.34090909       0.25000000       0.25000000 </v>
   <v>       0.38636364       0.25000000       0.25000000 </v>
   <v>       0.43181818       0.25000000       0.25000000 </v>
   <v>       0.47727273       0.25000000       0.25000000 </v>
   <v>       0.29545455       0.29545455       0.25000000 </v>
   <v>       0.34090909       0.29545455       0.25000000 </v>
   <v>       0.38636364       0.29545455       0.25000000 </v>
   <v>       0.43181818       0.29545455       0.25000000 </v>
   <v>       0.47727273       0.29545455       0.25000000 </v>
   <v>       0.34090909       0.34090909       0.25000000 </v>
   <v>       0.38636364       0.34090909       0.25000000 </v>
   <v>       0.43181818       0.34090909       0.25000000 </v>
   <v>       0.47727273       0.34090909       0.25000000 </v>
   <v>       0.38636364       0.38636364       0.25000000 </v>
   <v>       0.43181818       0.38636364       0.25000000 </v>
   <v>       0.47727273       0.38636364       0.25000000 </v>
   <v>       0.43181818       0.43181818       0.25000000 </v>
   <v>       0.47727273       0.43181818       0.25000000 </v>
   <v>       0.47727273       0.47727273       0.25000000 </v>
   <v>       0.29545455       0.29545455       0.29545455 </v>
   <v>       0.34090909       0.29545455       0.29545455 </v>
   <v>       0.38636364       0.29545455       0.29545455 </v>
   <v>       0.43181818       0.29545455       0.29545455 </v>
   <v>       0.47727273       0.29545455       0.29545455 </v>
   <v>       0.34090909       0.34090909       0.29545455 </v>
   <v>       0.38636364       0.34090909       0.29545455 </v>
   <v>       0.43181818       0.34090909       0.29545455 </v>
   <v>       0.47727273       0.34090909       0.29545455 </v>
   <v>       0.38636364       0.38636364       0.29545455 </v>
   <v>       0.43181818       0.38636364       0.29545455 </v>
   <v>       0.47727273       0.38636364       0.29545455 </v>
   <v>       0.43181818       0.43181818       0.29545455 </v>
   <v>       0.47727273       0.43181818       0.29545455 </v>
   <v>       0.47727273       0.47727273       0.29545455 </v>
   <v>       0.34090909       0.34090909       0.34090909 </v>
   <v>       0.38636364       0.34090909       0.34090909 </v>
   <v>       0.43181818       0.34090909       0.34090909 </v>
   <v>       0.47727273       0.34090909       0.34090909 </v>
   <v>       0.38636364       0.38636364       0.34090909 </v>
   <v>       0.43181818       0.38636364       0.34090909 </v>
   <v>       0.47727273       0.38636364       0.34090909 </v>
   <v>       0.43181818       0.43181818       0.34090909 </v>
   <v>       0.47727273       0.43181818       0.34090909 </v>
   <v>       0.47727273       0.47727273       0.34090909 </v>
   <v>       0.38636364       0.38636364       0.38636364 </v>
   <v>       0.43181818       0.38636364       0.38636364 </v>
   <v>       0.47727273       0.38636364       0.38636364 </v>
   <v>       0.43181818       0.43181818       0.38636364 </v>
   <v>       0.47727273       0.43181818       0.38636364 </v>
   <v>       0.47727273       0.47727273       0.38636364 </v>
   <v>       0.43181818       0.43181818       0.43181818 </v>
   <v>       0.47727273       0.43181818       0.43181818 </v>
   <v>       0.47727273       0.47727273       0.43181818 </v>
   <v>       0.47727273       0.47727273       0.47727273 </v>
  </varray>
  <varray name="weights" >
   <v>       0.00075131 </v>
   <v>       0.00225394 </v>
   <v>       0.00225394 </v>
   <v>       0.00225394 </v>
   <v>       0.00225394 </v>
   <v>       0.00225394 </v>
   <v>       0.00225394 </v>
   <v>       0.00225394 </v>
   <v>       0.00225394 </v>
   <v>       0.00225394 </v>
   <v>       0.00225394 </v>
   <v>       0.00225394 </v>
   <v>       0.00450789 </v>
   <v>       0.00450789 </v>
   <v>       0.00450789 </v>
   <v>       0.00450789 </v>
   <v>       0.00450789 </v>
   <v>       0.00450789 </v>
   <v>       0.00450789 </v>
   <v>       0.00450789 </v>
   <v>       0.00450789 </v>
   <v>       0.00225394 </v>
   <v>       0.00450789 </v>
   <v>       0.00450789 </v>
   <v>       0.00450789 </v>
   <v>       0.00450789 </v>
   <v>       0.00450789 </v>
   <v>       0.00450789 </v>
   <v>       0.00450789 </v>
   <v>       0.00450789 </v>
   <v>       0.00225394 </v>
   <v>       0.00450789 </v>
   <v>       0.00450789 </v>
   <v>       0.00450789 </v>
   <v>       0.00450789 </v>
   <v>       0.00450789 </v>
   <v>       0.00450789 </v>
   <v>       0.00450789 </v>
   <v>       0.00225394 </v>
   <v>       0.00450789 </v>
   <v>       0.00450789 </v>
   <v>       0.00450789 </v>
   <v>       0.00450789 </v>
   <v>       0.00450789 </v>
   <v>       0.00450789 </v>
   <v>       0.00225394 </v>
   <v>       0.00450789 </v>
   <v>       0.00450789 </v>
   <v>       0.00450789 </v>
   <v>       0.00450789 </v>
   <v>       0.00450789 </v>
   <v>       0.00225394 </v>
   <v>       0.00450789 </v>
   <v>       0.00450789 </v>
   <v>       0.00450789 </v>
   <v>       0.00450789 </v>
   <v>       0.00225394 </v>
   <v>       0.00450789 </v>
   <v>       0.00450789 </v>
   <v>       0.00450789 </v>
   <v>       0.00225394 </v>
   <v>       0.00450789 </v>
   <v>       0.00450789 </v>
   <v>       0.00225394 </v>
   <v>       0.00450789 </v>
   <v>       0.00225394 </v>
   <v>       0.00075131 </v>
   <v>       0.00225394 </v>
   <v>       0.00225394 </v>
   <v>       0.00225394 </v>
   <v>       0.00225394 </v>
   <v>       0.00225394 </v>
   <v>       0.00225394 </v>
   <v>       0.00225394 </v>
   <v>       0.00225394 </v>
   <v>       0.00225394 </v>
   <v>       0.00225394 </v>
   <v>       0.00450789 </v>
   <v>       0.00450789 </v>
   <v>       0.00450789 </v>
   <v>       0.00450789 </v>
   <v>       0.00450789 </v>
   <v>       0.00450789 </v>
   <v>       0.00450789 </v>
   <v>       0.00450789 </v>
   <v>       0.00225394 </v>
   <v>       0.00450789 </v>
   <v>       0.00450789 </v>
   <v>       0.00450789 </v>
   <v>       0.00450789 </v>
   <v>       0.00450789 </v>
   <v>       0.00450789 </v>
   <v>       0.00450789 </v>
   <v>       0.00225394 </v>
   <v>       0.00450789 </v>
   <v>       0.00450789 </v>
   <v>       0.00450789 </v>
   <v>       0.00450789 </v>
   <v>       0.00450789 </v>
   <v>       0.00450789 </v>
   <v>       0.00225394 </v>
   <v>       0.00450789 </v>
   <v>       0.00450789 </v>
   <v>       0.00450789 </v>
   <v>       0.00450789 </v>
   <v>       0.00450789 </v>
   <v>       0.00225394 </v>
   <v>       0.00450789 </v>
   <v>       0.00450789 </v>
   <v>       0.00450789 </v>
   <v>       0.00450789 </v>
   <v>       0.00225394 </v>
   <v>       0.00450789 </v>
   <v>       0.00450789 </v>
   <v>       0.00450789 </v>
   <v>       0.00225394 </v>
   <v>       0.00450789 </v>
   <v>       0.00450789 </v>
   <v>       0.00225394 </v>
   <v>       0.00450789 </v>
   <v>       0.00225394 </v>
   <v>       0.00075131 </v>
   <v>       0.00225394 </v>
   <v>       0.00225394 </v>
   <v>       0.00225394 </v>
   <v>       0.00225394 </v>
   <v>       0.00225394 </v>
   <v>       0.00225394 </v>
   <v>       0.00225394 </v>
   <v>       0.00225394 </v>
   <v>       0.00225394 </v>
   <v>       0.00450789 </v>
   <v>       0.00450789 </v>
   <v>       0.00450789 </v>
   <v>       0.00450789 </v>
   <v>       0.00450789 </v>
   <v>       0.00450789 </v>
   <v>       0.00450789 </v>
   <v>       0.00225394 </v>
   <v>       0.00450789 </v>
   <v>       0.00450789 </v>
   <v>       0.00450789 </v>
   <v>       0.00450789 </v>
   <v>       0.00450789 </v>
   <v>       0.00450789 </v>
   <v>       0.00225394 </v>
   <v>       0.00450789 </v>
   <v>       0.00450789 </v>
   <v>       0.00450789 </v>
   <v>       0.00450789 </v>
   <v>       0.00450789 </v>
   <v>       0.00225394 </v>
   <v>       0.00450789 </v>
   <v>       0.00450789 </v>
   <v>       0.00450789 </v>
   <v>       0.00450789 </v>
   <v>       0.00225394 </v>
   <v>       0.00450789 </v>
   <v>       0.00450789 </v>
   <v>       0.00450789 </v>
   <v>       0.00225394 </v>
   <v>       0.00450789 </v>
   <v>       0.00450789 </v>
   <v>       0.00225394 </v>
   <v>       0.00450789 </v>
   <v>       0.00225394 </v>
   <v>       0.00075131 </v>
   <v>       0.00225394 </v>
   <v>       0.00225394 </v>
   <v>       0.00225394 </v>
   <v>       0.00225394 </v>
   <v>       0.00225394 </v>
   <v>       0.00225394 </v>
   <v>       0.00225394 </v>
   <v>       0.00225394 </v>
   <v>       0.00450789 </v>
   <v>       0.00450789 </v>
   <v>       0.00450789 </v>
   <v>       0.00450789 </v>
   <v>       0.00450789 </v>
   <v>       0.00450789 </v>
   <v>       0.00225394 </v>
   <v>       0.00450789 </v>
   <v>       0.00450789 </v>
   <v>       0.00450789 </v>
   <v>       0.00450789 </v>
   <v>       0.00450789 </v>
   <v>       0.00225394 </v>
   <v>       0.00450789 </v>
   <v>       0.00450789 </v>
   <v>       0.00450789 </v>
   <v>       0.00450789 </v>
   <v>       0.00225394 </v>
   <v>       0.00450789 </v>
   <v>       0.00450789 </v>
   <v>       0.00450789 </v>
   <v>       0.00225394 </v>
   <v>       0.00450789 </v>
   <v>       0.00450789 </v>
   <v>       0.00225394 </v>
   <v>       0.00450789 </v>
   <v>       0.00225394 </v>
   <v>       0.00075131 </v>
   <v>       0.00225394 </v>
   <v>       0.00225394 </v>
   <v>       0.00225394 </v>
   <v>       0.00225394 </v>
   <v>       0.00225394 </v>
   <v>       0.00225394 </v>
   <v>       0.00225394 </v>
   <v>       0.00450789 </v>
   <v>       0.00450789 </v>
   <v>       0.00450789 </v>
   <v>       0.00450789 </v>
   <v>       0.00450789 </v>
   <v>       0.00225394 </v>
   <v>       0.00450789 </v>
   <v>       0.00450789 </v>
   <v>       0.00450789 </v>
   <v>       0.00450789 </v>
   <v>       0.00225394 </v>
   <v>       0.00450789 </v>
   <v>       0.00450789 </v>
   <v>       0.00450789 </v>
   <v>       0.00225394 </v>
   <v>       0.00450789 </v>
   <v>       0.00450789 </v>
   <v>       0.00225394 </v>
   <v>       0.00450789 </v>
   <v>       0.00225394 </v>
   <v>       0.00075131 </v>
   <v>       0.00225394 </v>
   <v>       0.00225394 </v>
   <v>       0.00225394 </v>
   <v>       0.00225394 </v>
   <v>       0.00225394 </v>
   <v>       0.00225394 </v>
   <v>       0.00450789 </v>
   <v>       0.00450789 </v>
   <v>       0.00450789 </v>
   <v>       0.00450789 </v>
   <v>       0.00225394 </v>
   <v>       0.00450789 </v>
   <v>       0.00450789 </v>
   <v>       0.00450789 </v>
   <v>       0.00225394 </v>
   <v>       0.00450789 </v>
   <v>       0.00450789 </v>
   <v>       0.00225394 </v>
   <v>       0.00450789 </v>
   <v>       0.00225394 </v>
   <v>       0.00075131 </v>
   <v>       0.00225394 </v>
   <v>       0.00225394 </v>
   <v>       0.00225394 </v>
   <v>       0.00225394 </v>
   <v>       0.00225394 </v>
   <v>       0.00450789 </v>
   <v>       0.00450789 </v>
   <v>       0.00450789 </v>
   <v>       0.00225394 </v>
   <v>       0.00450789 </v>
   <v>       0.00450789 </v>
   <v>       0.00225394 </v>
   <v>       0.00450789 </v>
   <v>       0.00225394 </v>
   <v>       0.00075131 </v>
   <v>       0.00225394 </v>
   <v>       0.00225394 </v>
   <v>       0.00225394 </v>
   <v>       0.00225394 </v>
   <v>       0.00450789 </v>
   <v>       0.00450789 </v>
   <v>       0.00225394 </v>
   <v>       0.00450789 </v>
   <v>       0.00225394 </v>
   <v>       0.00075131 </v>
   <v>       0.00225394 </v>
   <v>       0.00225394 </v>
   <v>       0.00225394 </v>
   <v>       0.00450789 </v>
   <v>       0.00225394 </v>
   <v>       0.00075131 </v>
   <v>       0.00225394 </v>
   <v>       0.00225394 </v>
   <v>       0.00075131 </v>
  </varray>
 </kpoints>
 <parameters>
  <separator name="general" >
   <i type="string" name="SYSTEM">Al fcc relaxation</i>
   <i type="logical" name="LCOMPAT"> F  </i>
  </separator>
  <separator name="electronic" >
   <i type="string" name="PREC">accura</i>
   <i name="ENMAX">    400.00000000</i>
   <i name="ENAUG">    291.05200000</i>
   <i name="EDIFF">      0.00000100</i>
   <i type="int" name="IALGO">    68</i>
   <i type="int" name="IWAVPR">    11</i>
   <i type="int" name="NBANDS">    14</i>
   <i type="int" name="NBANDSLOW">    -1</i>
   <i type="int" name="NBANDSHIGH">    -1</i>
   <i name="NELECT">     12.00000000</i>
   <i type="int" name="TURBO">     0</i>
   <i type="int" name="IRESTART">     0</i>
   <i type="int" name="NREBOOT">     0</i>
   <i type="int" name="NMIN">     0</i>
   <i name="EREF">      0.00000000</i>
   <separator name="electronic smearing" >
    <i type="int" name="ISMEAR">     1</i>
    <i name="SIGMA">      0.20000000</i>
    <i name="KSPACING">      0.08000000</i>
    <i type="logical" name="KGAMMA"> T  </i>
    <i type="logical" name="KBLOWUP"> T  </i>
   </separator>
   <separator name="electronic projectors" >
    <i type="logical" name="LREAL"> T  </i>
    <v name="ROPT">     -0.00025000</v>
    <i type="int" name="LMAXPAW">  -100</i>
    <i type="int" name="LMAXMIX">     2</i>
    <i type="logical" name="NLSPLINE"> F  </i>
   </separator>
   <separator name="electronic startup" >
    <i type="int" name="ISTART">     0</i>
    <i type="int" name="ICHARG">     2</i>
    <i type="int" name="INIWAV">     1</i>
   </separator>
   <separator name="electronic spin" >
    <i type="int" name="ISPIN">     1</i>
    <i type="logical" name="LNONCOLLINEAR"> F  </i>
    <v name="MAGMOM">      1.00000000      1.00000000      1.00000000      1.00000000</v>
    <i name="NUPDOWN">     -1.00000000</i>
    <i type="logical" name="LSORBIT"> F  </i>
    <v name="SAXIS">      0.00000000      0.00000000      1.00000000</v>
    <i type="logical" name="LSPIRAL"> F  </i>
    <v name="QSPIRAL">      0.00000000      0.00000000      0.00000000</v>
    <i type="logical" name="LZEROZ"> F  </i>
   </separator>
   <separator name="electronic exchange-correlation" >
    <i type="logical" name="LASPH"> F  </i>
    <i type="logical" name="LMETAGGA"> F  </i>
   </separator>
   <separator name="electronic convergence" >
    <i type="int" name="NELM">    60</i>
    <i type="int" name="NELMDL">    -5</i>
    <i type="int" name="NELMIN">     4</i>
    <i name="ENINI">    400.00000000</i>
    <separator name="electronic convergence detail" >
     <i type="logical" name="LDIAG"> T  </i>
     <i type="logical" name="LSUBROT"> F  </i>
     <i name="WEIMIN">      0.00100000</i>
     <i name="EBREAK">      0.00000002</i>
     <i name="DEPER">      0.30000000</i>
     <i type="int" name="NRMM">     4</i>
     <i name="TIME">      0.40000000</i>
    </separator>
   </separator>
   <separator name="electronic mixer" >
    <i name="AMIX">      0.40000000</i>
    <i name="BMIX">      1.00000000</i>
    <i name="AMIN">      0.10000000</i>
    <i name="AMIX_MAG">      1.60000000</i>
    <i name="BMIX_MAG">      1.00000000</i>
    <separator name="electronic mixer details" >
     <i type="int" name="IMIX">     4</i>
     <i type="logical" name="MIXFIRST"> F  </i>
     <i type="int" name="MAXMIX">   -45</i>
     <i name="WC">    100.00000000</i>
     <i type="int" name="INIMIX">     1</i>
     <i type="int" name="MIXPRE">     1</i>
     <i type="int" name="MREMOVE">     5</i>
    </separator>
   </separator>
   <separator name="electronic dipolcorrection" >
    <i type="logical" name="LDIPOL"> F  </i>
    <i type="logical" name="LMONO"> F  </i>
    <i type="int" name="IDIPOL">     0</i>
    <i name="EPSILON">      1.00000000</i>
    <v name="DIPOL">   -100.00000000   -100.00000000   -100.00000000</v>
    <i name="EFIELD">      0.00000000</i>
   </separator>
  </separator>
  <separator name="grids" >
   <i type="int" name="NGX">    24</i>
   <i type="int" name="NGY">    24</i>
   <i type="int" name="NGZ">    24</i>
   <i type="int" name="NGXF">    48</i>
   <i type="int" name="NGYF">    48</i>
   <i type="int" name="NGZF">    48</i>
   <i type="logical" name="ADDGRID"> F  </i>
  </separator>
  <separator name="ionic" >
   <i type="int" name="NSW">   100</i>
   <i type="int" name="IBRION">     2</i>
   <i type="int" name="MDALGO">     0</i>
   <i type="int" name="ISIF">     4</i>
   <i name="PSTRESS">      0.00000000</i>
   <i name="EDIFFG">      0.00001000</i>
   <i type="int" name="NFREE">     1</i>
   <i name="POTIM">      0.50000000</i>
   <i name="SMASS">     -3.00000000</i>
   <i name="SCALEE">      1.00000000</i>
  </separator>
  <separator name="ionic md" >
   <i name="TEBEG">      0.00010000</i>
   <i name="TEEND">      0.00010000</i>
   <i type="int" name="NBLOCK">     1</i>
   <i type="int" name="KBLOCK">   100</i>
   <i type="int" name="NPACO">   256</i>
   <i name="APACO">     10.00000000</i>
  </separator>
  <separator name="symmetry" >
   <i type="int" name="ISYM">     2</i>
   <i name="SYMPREC">      0.00001000</i>
  </separator>
  <separator name="dos" >
   <i type="int" name="LORBIT">     0</i>
   <v name="RWIGS">     -1.00000000</v>
   <i type="int" name="NEDOS">   301</i>
   <i name="EMIN">     10.00000000</i>
   <i name="EMAX">    -10.00000000</i>
   <i name="EFERMI">      0.00000000</i>
  </separator>
  <separator name="writing" >
   <i type="int" name="NWRITE">     2</i>
   <i type="logical" name="LWAVE"> F  </i>
   <i type="logical" name="LDOWNSAMPLE"> F  </i>
   <i type="logical" name="LCHARG"> F  </i>
   <i type="logical" name="LPARD"> F  </i>
   <i type="logical" name="LVTOT"> F  </i>
   <i type="logical" name="LVHAR"> F  </i>
   <i type="logical" name="LELF"> F  </i>
   <i type="logical" name="LOPTICS"> F  </i>
   <v name="STM">      0.00000000      0.00000000      0.00000000      0.00000000      0.00000000      0.00000000      0.00000000</v>
  </separator>
  <separator name="performance" >
   <i type="int" name="NPAR">    14</i>
   <i type="int" name="NSIM">     4</i>
   <i type="int" name="NBLK">    -1</i>
   <i type="logical" name="LPLANE"> T  </i>
   <i type="logical" name="LSCALAPACK"> T  </i>
   <i type="logical" name="LSCAAWARE"> F  </i>
   <i type="logical" name="LSCALU"> F  </i>
   <i type="logical" name="LASYNC"> F  </i>
   <i type="logical" name="LORBITALREAL"> F  </i>
  </separator>
  <separator name="miscellaneous" >
   <i type="int" name="IDIOT">     3</i>
   <i type="int" name="PHON_NSTRUCT">    -1</i>
   <i type="logical" name="LMUSIC"> F  </i>
   <v name="POMASS">     26.98100000</v>
   <v name="DARWINR">      0.00000000</v>
   <v name="DARWINV">      1.00000000</v>
   <i type="logical" name="LCORR"> T  </i>
  </separator>
  <i type="logical" name="GGA_COMPAT"> T  </i>
  <i type="logical" name="LBERRY"> F  </i>
  <i type="int" name="ICORELEVEL">     0</i>
  <i type="logical" name="LDAU"> F  </i>
  <i type="int" name="I_CONSTRAINED_M">     0</i>
  <separator name="electronic exchange-correlation" >
   <i type="string" name="GGA">--</i>
   <i type="int" name="VOSKOWN">     0</i>
   <i type="logical" name="LHFCALC"> F  </i>
   <i type="string" name="PRECFOCK"></i>
   <i type="logical" name="LSYMGRAD"> F  </i>
   <i type="logical" name="LHFONE"> F  </i>
   <i type="logical" name="LRHFCALC"> F  </i>
   <i type="logical" name="LTHOMAS"> F  </i>
   <i type="logical" name="LMODELHF"> F  </i>
   <i type="logical" name="LFOCKACE"> F  </i>
   <i name="ENCUT4O">     -1.00000000</i>
   <i type="int" name="EXXOEP">     0</i>
   <i type="int" name="FOURORBIT">     0</i>
   <i name="AEXX">      0.00000000</i>
   <i name="HFALPHA">      0.00000000</i>
   <i name="MCALPHA">      0.00000000</i>
   <i name="ALDAX">      1.00000000</i>
   <i name="AGGAX">      1.00000000</i>
   <i name="ALDAC">      1.00000000</i>
   <i name="AGGAC">      1.00000000</i>
   <i type="int" name="NKREDX">     1</i>
   <i type="int" name="NKREDY">     1</i>
   <i type="int" name="NKREDZ">     1</i>
   <i type="logical" name="SHIFTRED"> F  </i>
   <i type="logical" name="ODDONLY"> F  </i>
   <i type="logical" name="EVENONLY"> F  </i>
   <i type="int" name="LMAXFOCK">     0</i>
   <i type="int" name="NMAXFOCKAE">     0</i>
   <i type="logical" name="LFOCKAEDFT"> F  </i>
   <i name="HFSCREEN">      0.00000000</i>
   <i name="HFSCREENC">      0.00000000</i>
   <i type="int" name="NBANDSGWLOW">     0</i>
  </separator>
  <separator name="vdW DFT" >
   <i type="logical" name="LUSE_VDW"> F  </i>
   <i type="int" name="IVDW_NL">     1</i>
   <i type="logical" name="LSPIN_VDW"> F  </i>
   <i name="Zab_VDW">     -0.84910000</i>
   <i name="PARAM1">      0.12340000</i>
   <i name="PARAM2">      1.00000000</i>
   <i name="PARAM3">      0.00000000</i>
  </separator>
  <separator name="model GW" >
   <i type="int" name="MODEL_GW">     0</i>
   <i name="MODEL_EPS0">      6.91812140</i>
   <i name="MODEL_ALPHA">      1.00000000</i>
  </separator>
  <separator name="linear response parameters" >
   <i type="logical" name="LEPSILON"> F  </i>
   <i type="logical" name="LRPA"> F  </i>
   <i type="logical" name="LNABLA"> F  </i>
   <i type="logical" name="LVEL"> F  </i>
   <i name="CSHIFT">      0.10000000</i>
   <i name="OMEGAMAX">     -1.00000000</i>
   <i name="DEG_THRESHOLD">      0.00200000</i>
   <i name="RTIME">     -0.10000000</i>
   <i name="WPLASMAI">      0.00000000</i>
   <v name="DFIELD">      0.00000000      0.00000000      0.00000000</v>
   <v name="WPLASMA">      0.00000000      0.00000000      0.00000000      0.00000000      0.00000000      0.00000000      0.00000000      0.00000000      0.00000000</v>
  </separator>
  <separator name="orbital magnetization" >
   <i type="logical" name="NUCIND"> F  </i>
   <v name="MAGPOS">      0.00000000      0.00000000      0.00000000</v>
   <i type="logical" name="LNICSALL"> T  </i>
   <i type="logical" name="ORBITALMAG"> F  </i>
   <i type="logical" name="LMAGBLOCH"> F  </i>
   <i type="logical" name="LCHIMAG"> F  </i>
   <i type="logical" name="LGAUGE"> T  </i>
   <i type="int" name="MAGATOM">     0</i>
   <v name="MAGDIPOL">      0.00000000      0.00000000      0.00000000</v>
   <v name="AVECCONST">      0.00000000      0.00000000      0.00000000</v>
  </separator>
  <separator name="response functions" >
   <i type="logical" name="LALL_IN_ONE"> F  </i>
   <i type="int" name="IALL_IN_ONE">    -1</i>
   <i type="int" name="NBANDS_WAVE">    -1</i>
   <i type="logical" name="LFINITE_TEMPERATURE"> F  </i>
   <i type="logical" name="LADDER"> F  </i>
   <i type="logical" name="LRPAFORCE"> F  </i>
   <i type="logical" name="LFXC"> F  </i>
   <i type="logical" name="LHARTREE"> T  </i>
   <i type="int" name="IBSE">     0</i>
   <v type="int" name="KPOINT">    -1     0     0     0</v>
   <i type="logical" name="LTCTC"> F  </i>
   <i type="logical" name="LTCTE"> F  </i>
   <i type="logical" name="LTETE"> F  </i>
   <i type="logical" name="LTRIPLET"> F  </i>
   <i type="logical" name="LFXCEPS"> F  </i>
   <i type="logical" name="LFXHEG"> F  </i>
   <i type="int" name="NATURALO">     2</i>
   <i type="logical" name="LHOLEGF"> F  </i>
   <i type="logical" name="L2ORDER"> F  </i>
   <i type="logical" name="LDMP1"> F  </i>
   <i type="logical" name="LMP2LT"> F  </i>
   <i type="logical" name="LSMP2LT"> F  </i>
   <i type="logical" name="LGWLF"> F  </i>
   <i name="ENCUTGW">     -1.60000002</i>
   <i name="ENCUTGWSOFT">     -1.60000002</i>
   <i name="ENCUTLF">     -1.00000000</i>
   <i type="logical" name="LESF_SPLINES"> F  </i>
   <i type="int" name="LMAXMP2">    -1</i>
   <i name="SCISSOR">      0.00000000</i>
   <i type="int" name="NOMEGA">     0</i>
   <i type="int" name="NOMEGAR">     0</i>
   <i type="int" name="NBANDSGW">    -1</i>
   <i type="int" name="NBANDSO">    -1</i>
   <i type="int" name="NBANDSV">    -1</i>
   <i type="int" name="NELMGW">     1</i>
   <i type="int" name="NELMHF">     1</i>
   <i type="int" name="DIM">     3</i>
   <i type="int" name="IESPILON">     4</i>
   <i type="int" name="ANTIRES">     0</i>
   <i name="OMEGAMAX">    -30.00000000</i>
   <i name="OMEGAMIN">    -30.00000000</i>
   <i name="OMEGATL">   -200.00000000</i>
   <i type="int" name="OMEGAGRID">     0</i>
   <i name="CSHIFT">     -0.10000000</i>
   <i type="logical" name="LSELFENERGY"> F  </i>
   <i type="logical" name="LSPECTRAL"> F  </i>
   <i type="logical" name="LSPECTRALGW"> F  </i>
   <i type="logical" name="LSINGLES"> F  </i>
   <i type="logical" name="LFERMIGW"> F  </i>
   <i type="logical" name="ODDONLYGW"> F  </i>
   <i type="logical" name="EVENONLYGW"> F  </i>
   <i type="int" name="NKREDLFX">     1</i>
   <i type="int" name="NKREDLFY">     1</i>
   <i type="int" name="NKREDLFZ">     1</i>
   <i type="int" name="MAXMEM">  2800</i>
   <i type="int" name="TELESCOPE">     0</i>
   <i type="int" name="NTAUPAR">    -1</i>
   <i type="int" name="NOMEGAPAR">    -1</i>
   <i name="DAMP_NEWTON">      0.80000001</i>
   <i name="LAMBDA">      1.00000000</i>
  </separator>
  <separator name="External order field" >
   <i name="OFIELD_KAPPA">      0.00000000</i>
   <v name="OFIELD_K">      0.00000000      0.00000000      0.00000000</v>
   <i name="OFIELD_Q6_NEAR">      0.00000000</i>
   <i name="OFIELD_Q6_FAR">      0.00000000</i>
   <i name="OFIELD_A">      0.00000000</i>
  </separator>
  <separator name="optional k-points parameters" >
   <i type="int" name="KPOINTS_OPT_MODE">     1</i>
   <i type="logical" name="LKPOINTS_OPT"> F  </i>
  </separator>
 </parameters>
 <atominfo>
  <atoms>       4 </atoms>
  <types>       1 </types>
  <array name="atoms" >
   <dimension dim="1">ion</dimension>
   <field type="string">element</field>
   <field type="int">atomtype</field>
   <set>
    <rc><c>Al</c><c>   1</c></rc>
    <rc><c>Al</c><c>   1</c></rc>
    <rc><c>Al</c><c>   1</c></rc>
    <rc><c>Al</c><c>   1</c></rc>
   </set>
  </array>
  <array name="atomtypes" >
   <dimension dim="1">type</dimension>
   <field type="int">atomspertype</field>
   <field type="string">element</field>
   <field>mass</field>
   <field>valence</field>
   <field type="string">pseudopotential</field>
   <set>
    <rc><c>   4</c><c>Al</c><c>     26.98100000</c><c>      3.00000000</c><c>  PAW_PBE Al 04Jan2001                  </c></rc>
   </set>
  </array>
 </atominfo>
 <structure name="initialpos" >
  <crystal>
   <varray name="basis" >
    <v>       3.58618184       0.00000000       0.00000000 </v>
    <v>      -0.00000000       3.58618184       0.00000000 </v>
    <v>       0.00000000       0.00000000       3.58618184 </v>
   </varray>
   <i name="volume">     46.12080937 </i>
   <varray name="rec_basis" >
    <v>       0.27884810       0.00000000      -0.00000000 </v>
    <v>       0.00000000       0.27884810       0.00000000 </v>
    <v>      -0.00000000      -0.00000000       0.27884810 </v>
   </varray>
  </crystal>
  <varray name="positions" >
   <v>       0.00000000       0.00000000       0.00000000 </v>
   <v>       0.00000000       0.50000000       0.50000000 </v>
   <v>       0.50000000       0.00000000       0.50000000 </v>
   <v>       0.50000000       0.50000000       0.00000000 </v>
  </varray>
 </structure>
 <calculation>
  <scstep>
   <time name="dav">   11.99    6.00</time>
   <time name="total">   12.03    6.02</time>
   <energy>
    <i name="alphaZ">     -1.16522149 </i>
    <i name="ewald">   -331.37714470 </i>
    <i name="hartreedc">     -0.27707350 </i>
    <i name="XCdc">   -102.24485524 </i>
    <i name="pawpsdc">    264.80062850 </i>
    <i name="pawaedc">   -136.98248303 </i>
    <i name="eentropy">     -0.00056561 </i>
    <i name="bandstr">     95.11237919 </i>
    <i name="atom">    214.15261729 </i>
    <i name="e_fr_energy">      2.01828140 </i>
    <i name="e_wo_entrp">      2.01884702 </i>
    <i name="e_0_energy">      2.01846994 </i>
   </energy>
  </scstep>
  <scstep>
   <time name="dav">   17.83    8.92</time>
   <time name="total">   17.83    8.92</time>
   <energy>
    <i name="e_fr_energy">    -12.32692692 </i>
    <i name="e_wo_entrp">    -12.32630906 </i>
    <i name="e_0_energy">    -12.32672097 </i>
   </energy>
  </scstep>
  <scstep>
   <time name="dav">   15.68    7.87</time>
   <time name="total">   15.69    7.87</time>
   <energy>
    <i name="e_fr_energy">    -12.39299152 </i>
    <i name="e_wo_entrp">    -12.39235431 </i>
    <i name="e_0_energy">    -12.39277912 </i>
   </energy>
  </scstep>
  <scstep>
   <time name="dav">   20.13   10.08</time>
   <time name="total">   20.13   10.08</time>
   <energy>
    <i name="e_fr_energy">    -12.39312839 </i>
    <i name="e_wo_entrp">    -12.39249120 </i>
    <i name="e_0_energy">    -12.39291599 </i>
   </energy>
  </scstep>
  <scstep>
   <time name="dav">   15.84    7.97</time>
   <time name="total">   16.26    8.18</time>
   <energy>
    <i name="e_fr_energy">    -12.39312843 </i>
    <i name="e_wo_entrp">    -12.39249124 </i>
    <i name="e_0_energy">    -12.39291603 </i>
   </energy>
  </scstep>
  <scstep>
   <time name="diag">    2.39    1.19</time>
   <time name="diis">    3.60    1.80</time>
   <time name="orth">    0.14    0.07</time>
   <time name="total">    6.59    3.30</time>
   <energy>
    <i name="e_fr_energy">    -12.29181135 </i>
    <i name="e_wo_entrp">    -12.29122353 </i>
    <i name="e_0_energy">    -12.29161541 </i>
   </energy>
  </scstep>
  <scstep>
   <time name="diag">    1.92    0.96</time>
   <time name="diis">    3.60    1.80</time>
   <time name="orth">    0.14    0.07</time>
   <time name="total">    6.12    3.07</time>
   <energy>
    <i name="e_fr_energy">    -12.22350016 </i>
    <i name="e_wo_entrp">    -12.22298456 </i>
    <i name="e_0_energy">    -12.22332829 </i>
   </energy>
  </scstep>
  <scstep>
   <time name="diag">    1.93    0.96</time>
   <time name="diis">    3.61    1.83</time>
   <time name="orth">    0.15    0.08</time>
   <time name="total">    6.16    3.11</time>
   <energy>
    <i name="e_fr_energy">    -12.22353670 </i>
    <i name="e_wo_entrp">    -12.22302667 </i>
    <i name="e_0_energy">    -12.22336669 </i>
   </energy>
  </scstep>
  <scstep>
   <time name="diag">    2.02    1.01</time>
   <time name="diis">    3.59    1.80</time>
   <time name="orth">    0.14    0.07</time>
   <time name="total">    6.20    3.11</time>
   <energy>
    <i name="e_fr_energy">    -12.22345898 </i>
    <i name="e_wo_entrp">    -12.22295113 </i>
    <i name="e_0_energy">    -12.22328970 </i>
   </energy>
  </scstep>
  <scstep>
   <time name="diag">    1.98    0.99</time>
   <time name="diis">    3.61    1.81</time>
   <time name="orth">    0.27    0.14</time>
   <time name="total">    6.34    3.18</time>
   <energy>
    <i name="e_fr_energy">    -12.22345972 </i>
    <i name="e_wo_entrp">    -12.22295153 </i>
    <i name="e_0_energy">    -12.22329032 </i>
   </energy>
  </scstep>
  <scstep>
   <time name="diag">    1.94    0.97</time>
   <time name="diis">    3.10    1.81</time>
   <time name="orth">    0.13    0.07</time>
   <time name="total">    5.64    3.08</time>
   <energy>
    <i name="e_fr_energy">    -12.22346216 </i>
    <i name="e_wo_entrp">    -12.22295373 </i>
    <i name="e_0_energy">    -12.22329268 </i>
   </energy>
  </scstep>
  <scstep>
   <time name="diag">    1.95    0.97</time>
   <time name="diis">    2.84    1.71</time>
   <time name="orth">    0.13    0.07</time>
   <time name="total">    4.96    2.77</time>
   <energy>
    <i name="alphaZ">     -1.16522149 </i>
    <i name="ewald">   -331.37714470 </i>
    <i name="hartreedc">     -0.92961351 </i>
    <i name="XCdc">   -101.46920708 </i>
    <i name="pawpsdc">   1145.37651349 </i>
    <i name="pawaedc">  -1018.00516102 </i>
    <i name="eentropy">     -0.00050840 </i>
    <i name="bandstr">     81.19426369 </i>
    <i name="atom">    214.15261729 </i>
    <i name="e_fr_energy">    -12.22346174 </i>
    <i name="e_wo_entrp">    -12.22295334 </i>
    <i name="e_0_energy">    -12.22329227 </i>
   </energy>
  </scstep>
  <structure>
   <crystal>
    <varray name="basis" >
     <v>       3.58618184       0.00000000       0.00000000 </v>
     <v>      -0.00000000       3.58618184       0.00000000 </v>
     <v>       0.00000000       0.00000000       3.58618184 </v>
    </varray>
    <i name="volume">     46.12080937 </i>
    <varray name="rec_basis" >
     <v>       0.27884810       0.00000000      -0.00000000 </v>
     <v>       0.00000000       0.27884810       0.00000000 </v>
     <v>      -0.00000000      -0.00000000       0.27884810 </v>
    </varray>
   </crystal>
   <varray name="positions" >
    <v>       0.00000000       0.00000000       0.00000000 </v>
    <v>       0.00000000       0.50000000       0.50000000 </v>
    <v>       0.50000000       0.00000000       0.50000000 </v>
    <v>       0.50000000       0.50000000       0.00000000 </v>
   </varray>
  </structure>
  <varray name="forces" >
   <v>       0.00000000      -0.00000000       0.00000000 </v>
   <v>      -0.00000000       0.00000000       0.00000000 </v>
   <v>      -0.00000000      -0.00000000       0.00000000 </v>
   <v>       0.00000000      -0.00000000      -0.00000000 </v>
  </varray>
  <varray name="stress" >
   <v>     611.55870043      -0.00000000       0.00000000 </v>
   <v>      -0.00000000     611.55870043       0.00000000 </v>
   <v>       0.00000000       0.00000000     611.55870043 </v>
  </varray>
  <energy>
   <i name="e_fr_energy">    -12.22346174 </i>
   <i name="e_wo_entrp">    -12.22295334 </i>
   <i name="e_0_energy">    -12.22329227 </i>
  </energy>
  <time name="totalsc">  135.36   68.43</time>
  <eigenvalues>
   <array>
    <dimension dim="1">band</dimension>
    <dimension dim="2">kpoint</dimension>
    <dimension dim="3">spin</dimension>
    <field>eigene</field>
    <field>occ</field>
    <set>
     <set comment="spin 1">
      <set comment="kpoint 1">
       <r>   -1.5272    1.0000 </r>
       <r>    8.4241    1.0000 </r>
       <r>    8.4241    1.0000 </r>
       <r>    8.4241    1.0000 </r>
       <r>   10.5067    1.0000 </r>
       <r>   10.5067    1.0000 </r>
       <r>   10.5067    1.0000 </r>
       <r>   17.4174   -0.0000 </r>
       <r>   17.4174   -0.0000 </r>
       <r>   17.4174   -0.0000 </r>
       <r>   19.9087    0.0000 </r>
       <r>   19.9087    0.0000 </r>
       <r>   19.9088    0.0000 </r>
       <r>   20.0192    0.0000 </r>
      </set>
      <set comment="kpoint 2">
       <r>   -1.4798    1.0000 </r>
       <r>    7.7983    1.0000 </r>
       <r>    8.4651    1.0000 </r>
       <r>    8.4651    1.0000 </r>
       <r>   10.5444    1.0000 </r>
       <r>   10.5444    1.0000 </r>
       <r>   11.2057    1.0000 </r>
       <r>   16.8995   -0.0000 </r>
       <r>   16.8995   -0.0000 </r>
       <r>   17.4641   -0.0000 </r>
       <r>   19.7002    0.0000 </r>
       <r>   19.7002    0.0000 </r>
       <r>   19.9446    0.0000 </r>
       <r>   20.0563    0.0000 </r>
      </set>
      <set comment="kpoint 3">
       <r>   -1.3851    1.0000 </r>
       <r>    7.0192    1.0000 </r>
       <r>    8.5470    1.0000 </r>
       <r>    8.5470    1.0000 </r>
       <r>   10.6188    1.0000 </r>
       <r>   10.6188    1.0000 </r>
       <r>   12.1314    0.8967 </r>
       <r>   16.2022   -0.0000 </r>
       <r>   16.2022   -0.0000 </r>
       <r>   17.5568   -0.0000 </r>
       <r>   19.2890    0.0000 </r>
       <r>   19.2890    0.0000 </r>
       <r>   20.0164    0.0000 </r>
       <r>   20.1307    0.0000 </r>
      </set>
      <set comment="kpoint 4">
       <r>   -1.2431    1.0000 </r>
       <r>    6.2257    1.0000 </r>
       <r>    8.6699    1.0000 </r>
       <r>    8.6699    1.0000 </r>
       <r>   10.7279    1.0000 </r>
       <r>   10.7279    1.0000 </r>
       <r>   13.1446   -0.0000 </r>
       <r>   15.4738   -0.0000 </r>
       <r>   15.4738   -0.0000 </r>
       <r>   17.6959   -0.0000 </r>
       <r>   18.7779    0.0000 </r>
       <r>   18.7779    0.0000 </r>
       <r>   20.1242    0.0000 </r>
       <r>   20.2423    0.0000 </r>
      </set>
      <set comment="kpoint 5">
       <r>   -1.0542    1.0000 </r>
       <r>    5.4511    1.0000 </r>
       <r>    8.8337    1.0000 </r>
       <r>    8.8337    1.0000 </r>
       <r>   10.8681    1.0000 </r>
       <r>   10.8681    1.0000 </r>
       <r>   14.2117   -0.0000 </r>
       <r>   14.7589   -0.0000 </r>
       <r>   14.7589   -0.0000 </r>
       <r>   17.8811    0.0000 </r>
       <r>   18.2255    0.0000 </r>
       <r>   18.2255    0.0000 </r>
       <r>   20.2679    0.0000 </r>
       <r>   20.3914    0.0000 </r>
      </set>
      <set comment="kpoint 6">
       <r>   -0.8185    1.0000 </r>
       <r>    4.7065    1.0000 </r>
       <r>    9.0383    1.0000 </r>
       <r>    9.0383    1.0000 </r>
       <r>   11.0334    1.0000 </r>
       <r>   11.0334    1.0000 </r>
       <r>   14.0740   -0.0000 </r>
       <r>   14.0740   -0.0000 </r>
       <r>   15.3213   -0.0000 </r>
       <r>   17.6713   -0.0000 </r>
       <r>   17.6713   -0.0000 </r>
       <r>   18.1124    0.0000 </r>
       <r>   20.4478    0.0000 </r>
       <r>   20.5782    0.0000 </r>
      </set>
      <set comment="kpoint 7">
       <r>   -0.5365    1.0000 </r>
       <r>    3.9970    1.0000 </r>
       <r>    9.2836    1.0000 </r>
       <r>    9.2836    1.0000 </r>
       <r>   11.2146    1.0000 </r>
       <r>   11.2146    1.0000 </r>
       <r>   13.4277   -0.0000 </r>
       <r>   13.4277   -0.0000 </r>
       <r>   16.4678   -0.0000 </r>
       <r>   17.1436   -0.0000 </r>
       <r>   17.1436   -0.0000 </r>
       <r>   18.3898    0.0000 </r>
       <r>   20.6638    0.0000 </r>
       <r>   20.8031    0.0000 </r>
      </set>
      <set comment="kpoint 8">
       <r>   -0.2085    1.0000 </r>
       <r>    3.3251    1.0000 </r>
       <r>    9.5692    1.0000 </r>
       <r>    9.5692    1.0000 </r>
       <r>   11.3942    1.0000 </r>
       <r>   11.3942    1.0000 </r>
       <r>   12.8288   -0.0001 </r>
       <r>   12.8288   -0.0001 </r>
       <r>   16.6669   -0.0000 </r>
       <r>   16.6669   -0.0000 </r>
       <r>   17.6463   -0.0000 </r>
       <r>   18.7144    0.0000 </r>
       <r>   20.9162    0.0000 </r>
       <r>   21.0669    0.0000 </r>
      </set>
      <set comment="kpoint 9">
       <r>    0.1650    1.0000 </r>
       <r>    2.6930    1.0000 </r>
       <r>    9.8943    1.0000 </r>
       <r>    9.8943    1.0000 </r>
       <r>   11.5312    1.0000 </r>
       <r>   11.5312    1.0000 </r>
       <r>   12.3028    0.2538 </r>
       <r>   12.3028    0.2538 </r>
       <r>   16.2668   -0.0000 </r>
       <r>   16.2668   -0.0000 </r>
       <r>   18.8412    0.0000 </r>
       <r>   19.0969    0.0000 </r>
       <r>   21.2048    0.0000 </r>
       <r>   21.3715    0.0000 </r>
      </set>
      <set comment="kpoint 10">
       <r>    0.5834    1.0000 </r>
       <r>    2.1017    1.0000 </r>
       <r>   10.2566    1.0000 </r>
       <r>   10.2566    1.0000 </r>
       <r>   11.4654    1.0000 </r>
       <r>   11.4654    1.0000 </r>
       <r>   11.9884    1.0352 </r>
       <r>   11.9884    1.0352 </r>
       <r>   15.9725   -0.0000 </r>
       <r>   15.9725   -0.0000 </r>
       <r>   19.4817    0.0000 </r>
       <r>   20.1000    0.0000 </r>
       <r>   20.9835    0.0000 </r>
       <r>   21.5295    0.0000 </r>
      </set>
      <set comment="kpoint 11">
       <r>    1.0461    1.0000 </r>
       <r>    1.5525    1.0000 </r>
       <r>   10.6445    1.0000 </r>
       <r>   10.6445    1.0000 </r>
       <r>   11.1057    1.0000 </r>
       <r>   11.1057    1.0000 </r>
       <r>   11.9614    1.0318 </r>
       <r>   11.9614    1.0318 </r>
       <r>   15.8146   -0.0000 </r>
       <r>   15.8146   -0.0000 </r>
       <r>   19.9415    0.0000 </r>
       <r>   20.4420    0.0000 </r>
       <r>   21.3211    0.0000 </r>
       <r>   21.8899    0.0000 </r>
      </set>
      <set comment="kpoint 12">
       <r>   -1.4324    1.0000 </r>
       <r>    7.8400    1.0000 </r>
       <r>    7.8400    1.0000 </r>
       <r>    8.5060    1.0000 </r>
       <r>   10.5808    1.0000 </r>
       <r>   11.2420    1.0000 </r>
       <r>   11.2420    1.0000 </r>
       <r>   16.4334   -0.0000 </r>
       <r>   16.9446   -0.0000 </r>
       <r>   16.9446   -0.0000 </r>
       <r>   19.7380    0.0000 </r>
       <r>   19.7380    0.0000 </r>
       <r>   19.9820    0.0000 </r>
       <r>   20.6337    0.0000 </r>
      </set>
      <set comment="kpoint 13">
       <r>   -1.3377    1.0000 </r>
       <r>    7.0615    1.0000 </r>
       <r>    7.9231    1.0000 </r>
       <r>    8.5879    1.0000 </r>
       <r>   10.6522    1.0000 </r>
       <r>   11.3137    1.0000 </r>
       <r>   12.1655    0.7973 </r>
       <r>   15.7775   -0.0000 </r>
       <r>   16.2465   -0.0000 </r>
       <r>   17.0348   -0.0000 </r>
       <r>   19.3301    0.0000 </r>
       <r>   19.7296    0.0000 </r>
       <r>   19.8137    0.0000 </r>
       <r>   20.7123    0.0000 </r>
      </set>
      <set comment="kpoint 14">
       <r>   -1.1959    1.0000 </r>
       <r>    6.2687    1.0000 </r>
       <r>    8.0477    1.0000 </r>
       <r>    8.7107    1.0000 </r>
       <r>   10.7555    1.0000 </r>
       <r>   11.4185    1.0000 </r>
       <r>   13.1753   -0.0000 </r>
       <r>   15.0798   -0.0000 </r>
       <r>   15.5178   -0.0000 </r>
       <r>   17.1702   -0.0000 </r>
       <r>   18.8232    0.0000 </r>
       <r>   19.2349    0.0000 </r>
       <r>   19.9275    0.0000 </r>
       <r>   20.8279    0.0000 </r>
      </set>
      <set comment="kpoint 15">
       <r>   -1.0070    1.0000 </r>
       <r>    5.4947    1.0000 </r>
       <r>    8.2132    1.0000 </r>
       <r>    8.8744    1.0000 </r>
       <r>   10.8848    1.0000 </r>
       <r>   11.5523    1.0000 </r>
       <r>   14.2375   -0.0000 </r>
       <r>   14.3944   -0.0000 </r>
       <r>   14.8031   -0.0000 </r>
       <r>   17.3505   -0.0000 </r>
       <r>   18.2763    0.0000 </r>
       <r>   18.6791    0.0000 </r>
       <r>   20.0797    0.0000 </r>
       <r>   20.9821    0.0000 </r>
      </set>
      <set comment="kpoint 16">
       <r>   -0.7715    1.0000 </r>
       <r>    4.7506    1.0000 </r>
       <r>    8.4194    1.0000 </r>
       <r>    9.0787    1.0000 </r>
       <r>   11.0287    1.0000 </r>
       <r>   11.7084    1.0005 </r>
       <r>   13.7485   -0.0000 </r>
       <r>   14.1192   -0.0000 </r>
       <r>   15.3394   -0.0000 </r>
       <r>   17.5766   -0.0000 </r>
       <r>   17.7296    0.0000 </r>
       <r>   18.1148    0.0000 </r>
       <r>   20.2711    0.0000 </r>
       <r>   21.1756    0.0000 </r>
      </set>
      <set comment="kpoint 17">
       <r>   -0.4896    1.0000 </r>
       <r>    4.0415    1.0000 </r>
       <r>    8.6655    1.0000 </r>
       <r>    9.3235    1.0000 </r>
       <r>   11.1636    1.0000 </r>
       <r>   11.8746    1.0131 </r>
       <r>   13.1684   -0.0000 </r>
       <r>   13.4766   -0.0000 </r>
       <r>   16.4723   -0.0000 </r>
       <r>   17.2130   -0.0000 </r>
       <r>   17.5717   -0.0000 </r>
       <r>   17.8499    0.0000 </r>
       <r>   20.5029    0.0000 </r>
       <r>   21.4081    0.0000 </r>
      </set>
      <set comment="kpoint 18">
       <r>   -0.1618    1.0000 </r>
       <r>    3.3701    1.0000 </r>
       <r>    8.9505    1.0000 </r>
       <r>    9.6077    1.0000 </r>
       <r>   11.2343    1.0000 </r>
       <r>   12.0227    1.0324 </r>
       <r>   12.7044   -0.0025 </r>
       <r>   12.8934   -0.0000 </r>
       <r>   16.7534   -0.0000 </r>
       <r>   17.0724   -0.0000 </r>
       <r>   17.6150   -0.0000 </r>
       <r>   18.1847    0.0000 </r>
       <r>   20.7780    0.0000 </r>
       <r>   21.5083    0.0000 </r>
      </set>
      <set comment="kpoint 19">
       <r>    0.2115    1.0000 </r>
       <r>    2.7382    1.0000 </r>
       <r>    9.2723    1.0000 </r>
       <r>    9.9288    1.0000 </r>
       <r>   11.1418    1.0000 </r>
       <r>   12.0203    1.0329 </r>
       <r>   12.4457   -0.0272 </r>
       <r>   12.4838   -0.0354 </r>
       <r>   16.3799   -0.0000 </r>
       <r>   16.6395   -0.0000 </r>
       <r>   18.4497    0.0000 </r>
       <r>   18.8881    0.0000 </r>
       <r>   20.9058    0.0000 </r>
       <r>   21.1038    0.0000 </r>
      </set>
      <set comment="kpoint 20">
       <r>    0.6297    1.0000 </r>
       <r>    2.1473    1.0000 </r>
       <r>    9.6274    1.0000 </r>
       <r>   10.2713    1.0000 </r>
       <r>   10.8708    1.0000 </r>
       <r>   11.6451    1.0001 </r>
       <r>   12.4030    0.0080 </r>
       <r>   12.4466   -0.0276 </r>
       <r>   16.1258   -0.0000 </r>
       <r>   16.2997   -0.0000 </r>
       <r>   18.8825    0.0000 </r>
       <r>   20.0243    0.0000 </r>
       <r>   20.3410    0.0000 </r>
       <r>   21.5032    0.0000 </r>
      </set>
      <set comment="kpoint 21">
       <r>    1.0922    1.0000 </r>
       <r>    1.5983    1.0000 </r>
       <r>   10.0062    1.0000 </r>
       <r>   10.3623    1.0000 </r>
       <r>   10.7961    1.0000 </r>
       <r>   11.1898    1.0000 </r>
       <r>   12.4457   -0.0272 </r>
       <r>   12.4700   -0.0343 </r>
       <r>   16.0223   -0.0000 </r>
       <r>   16.0841   -0.0000 </r>
       <r>   19.3303    0.0000 </r>
       <r>   19.8159    0.0000 </r>
       <r>   21.0764    0.0000 </r>
       <r>   21.8310    0.0000 </r>
      </set>
      <set comment="kpoint 22">
       <r>   -1.2431    1.0000 </r>
       <r>    7.1461    1.0000 </r>
       <r>    7.1461    1.0000 </r>
       <r>    8.6697    1.0000 </r>
       <r>   10.7165    1.0000 </r>
       <r>   12.2323    0.5391 </r>
       <r>   12.2323    0.5391 </r>
       <r>   15.1619   -0.0000 </r>
       <r>   16.3351   -0.0000 </r>
       <r>   16.3351   -0.0000 </r>
       <r>   19.4124    0.0000 </r>
       <r>   19.4124    0.0000 </r>
       <r>   20.1282    0.0000 </r>
       <r>   21.2621    0.0000 </r>
      </set>
      <set comment="kpoint 23">
       <r>   -1.1014    1.0000 </r>
       <r>    6.3546    1.0000 </r>
       <r>    7.2727    1.0000 </r>
       <r>    8.7924    1.0000 </r>
       <r>   10.8059    1.0000 </r>
       <r>   12.3287    0.1670 </r>
       <r>   13.2347   -0.0000 </r>
       <r>   14.5012   -0.0000 </r>
       <r>   15.6059   -0.0000 </r>
       <r>   16.4683   -0.0000 </r>
       <r>   18.9143    0.0000 </r>
       <r>   19.5366    0.0000 </r>
       <r>   19.8939    0.0000 </r>
       <r>   21.7070    0.0000 </r>
      </set>
      <set comment="kpoint 24">
       <r>   -0.9128    1.0000 </r>
       <r>    5.5817    1.0000 </r>
       <r>    7.4410    1.0000 </r>
       <r>    8.9557    1.0000 </r>
       <r>   10.9081    1.0000 </r>
       <r>   12.4494   -0.0288 </r>
       <r>   13.8611   -0.0000 </r>
       <r>   14.2857   -0.0000 </r>
       <r>   14.8921   -0.0000 </r>
       <r>   16.6466   -0.0000 </r>
       <r>   18.3791    0.0000 </r>
       <r>   19.3857    0.0000 </r>
       <r>   19.7040    0.0000 </r>
       <r>   21.8643    0.0000 </r>
      </set>
      <set comment="kpoint 25">
       <r>   -0.6774    1.0000 </r>
       <r>    4.8387    1.0000 </r>
       <r>    7.6505    1.0000 </r>
       <r>    9.1594    1.0000 </r>
       <r>   10.9969    1.0000 </r>
       <r>   12.5839   -0.0180 </r>
       <r>   13.2883   -0.0000 </r>
       <r>   14.2121   -0.0000 </r>
       <r>   15.3691   -0.0000 </r>
       <r>   16.8725   -0.0000 </r>
       <r>   17.8489    0.0000 </r>
       <r>   18.8277    0.0000 </r>
       <r>   19.9171    0.0000 </r>
       <r>   22.0440    0.0000 </r>
      </set>
      <set comment="kpoint 26">
       <r>   -0.3958    1.0000 </r>
       <r>    4.1305    1.0000 </r>
       <r>    7.9005    1.0000 </r>
       <r>    9.4024    1.0000 </r>
       <r>   11.0161    1.0000 </r>
       <r>   12.7070   -0.0024 </r>
       <r>   12.8452   -0.0001 </r>
       <r>   13.5858   -0.0000 </r>
       <r>   16.4604   -0.0000 </r>
       <r>   17.1596   -0.0000 </r>
       <r>   17.3569   -0.0000 </r>
       <r>   18.2755    0.0000 </r>
       <r>   20.1806    0.0000 </r>
       <r>   21.3623    0.0000 </r>
      </set>
      <set comment="kpoint 27">
       <r>   -0.0683    1.0000 </r>
       <r>    3.4598    1.0000 </r>
       <r>    8.1899    1.0000 </r>
       <r>    9.6819    1.0000 </r>
       <r>   10.8848    1.0000 </r>
       <r>   12.6141   -0.0121 </r>
       <r>   12.6887   -0.0035 </r>
       <r>   13.1278   -0.0000 </r>
       <r>   16.9353   -0.0000 </r>
       <r>   17.3245   -0.0000 </r>
       <r>   17.7286    0.0000 </r>
       <r>   17.7555    0.0000 </r>
       <r>   20.5054    0.0000 </r>
       <r>   20.7281    0.0000 </r>
      </set>
      <set comment="kpoint 28">
       <r>    0.3046    1.0000 </r>
       <r>    2.8286    1.0000 </r>
       <r>    8.5171    1.0000 </r>
       <r>    9.9805    1.0000 </r>
       <r>   10.6025    1.0000 </r>
       <r>   12.2696    0.3823 </r>
       <r>   12.6059   -0.0136 </r>
       <r>   13.0724   -0.0000 </r>
       <r>   16.6201   -0.0000 </r>
       <r>   17.2879   -0.0000 </r>
       <r>   17.7390    0.0000 </r>
       <r>   18.7733    0.0000 </r>
       <r>   20.1316    0.0000 </r>
       <r>   20.9169    0.0000 </r>
      </set>
      <set comment="kpoint 29">
       <r>    0.7224    1.0000 </r>
       <r>    2.2384    1.0000 </r>
       <r>    8.8792    1.0000 </r>
       <r>   10.0497    1.0000 </r>
       <r>   10.4966    1.0000 </r>
       <r>   11.7632    1.0019 </r>
       <r>   12.7269   -0.0016 </r>
       <r>   13.0773   -0.0000 </r>
       <r>   16.4484   -0.0000 </r>
       <r>   16.8943   -0.0000 </r>
       <r>   18.1416    0.0000 </r>
       <r>   19.5742    0.0000 </r>
       <r>   19.7909    0.0000 </r>
       <r>   21.4764    0.0000 </r>
      </set>
      <set comment="kpoint 30">
       <r>    1.1844    1.0000 </r>
       <r>    1.6900    1.0000 </r>
       <r>    9.2710    1.0000 </r>
       <r>    9.6804    1.0000 </r>
       <r>   10.8450    1.0000 </r>
       <r>   11.2823    1.0000 </r>
       <r>   12.8843   -0.0000 </r>
       <r>   13.0144   -0.0000 </r>
       <r>   16.4441   -0.0000 </r>
       <r>   16.6021   -0.0000 </r>
       <r>   18.5793    0.0000 </r>
       <r>   19.0566    0.0000 </r>
       <r>   20.6348    0.0000 </r>
       <r>   21.2911    0.0000 </r>
      </set>
      <set comment="kpoint 31">
       <r>   -0.9599    1.0000 </r>
       <r>    6.4832    1.0000 </r>
       <r>    6.4832    1.0000 </r>
       <r>    8.9146    1.0000 </r>
       <r>   10.8670    1.0000 </r>
       <r>   13.3182   -0.0000 </r>
       <r>   13.3182   -0.0000 </r>
       <r>   13.8859   -0.0000 </r>
       <r>   15.7391   -0.0000 </r>
       <r>   15.7391   -0.0000 </r>
       <r>   19.0529    0.0000 </r>
       <r>   19.0529    0.0000 </r>
       <r>   20.3480    0.0000 </r>
       <r>   21.8081    0.0000 </r>
      </set>
      <set comment="kpoint 32">
       <r>   -0.7715    1.0000 </r>
       <r>    5.7121    1.0000 </r>
       <r>    6.6542    1.0000 </r>
       <r>    9.0772    1.0000 </r>
       <r>   10.9117    1.0000 </r>
       <r>   13.3174   -0.0000 </r>
       <r>   13.4166   -0.0000 </r>
       <r>   14.3482   -0.0000 </r>
       <r>   15.0286   -0.0000 </r>
       <r>   15.9196   -0.0000 </r>
       <r>   18.5375    0.0000 </r>
       <r>   19.2420    0.0000 </r>
       <r>   20.1507    0.0000 </r>
       <r>   21.9656    0.0000 </r>
      </set>
      <set comment="kpoint 33">
       <r>   -0.5366    1.0000 </r>
       <r>    4.9705    1.0000 </r>
       <r>    6.8671    1.0000 </r>
       <r>    9.2791    1.0000 </r>
       <r>   10.8846    1.0000 </r>
       <r>   12.8743   -0.0000 </r>
       <r>   13.5058   -0.0000 </r>
       <r>   14.3648   -0.0000 </r>
       <r>   15.3876   -0.0000 </r>
       <r>   16.1609   -0.0000 </r>
       <r>   18.0358    0.0000 </r>
       <r>   19.4877    0.0000 </r>
       <r>   19.6626    0.0000 </r>
       <r>   21.2585    0.0000 </r>
      </set>
      <set comment="kpoint 34">
       <r>   -0.2554    1.0000 </r>
       <r>    4.2637    1.0000 </r>
       <r>    7.1213    1.0000 </r>
       <r>    9.5171    1.0000 </r>
       <r>   10.7123    1.0000 </r>
       <r>   12.6421   -0.0079 </r>
       <r>   13.4497   -0.0000 </r>
       <r>   13.8726   -0.0000 </r>
       <r>   16.2416   -0.0000 </r>
       <r>   16.6402   -0.0000 </r>
       <r>   17.5872   -0.0000 </r>
       <r>   19.1254    0.0000 </r>
       <r>   19.8019    0.0000 </r>
       <r>   20.5880    0.0000 </r>
      </set>
      <set comment="kpoint 35">
       <r>    0.0716    1.0000 </r>
       <r>    3.5942    1.0000 </r>
       <r>    7.4158    1.0000 </r>
       <r>    9.7729    1.0000 </r>
       <r>   10.3998    1.0000 </r>
       <r>   12.6352   -0.0088 </r>
       <r>   12.9780   -0.0000 </r>
       <r>   13.7980   -0.0000 </r>
       <r>   16.6358   -0.0000 </r>
       <r>   17.2323   -0.0000 </r>
       <r>   17.6035   -0.0000 </r>
       <r>   18.5995    0.0000 </r>
       <r>   19.9549    0.0000 </r>
       <r>   20.2092    0.0000 </r>
      </set>
      <set comment="kpoint 36">
       <r>    0.4440    1.0000 </r>
       <r>    2.9641    1.0000 </r>
       <r>    7.7494    1.0000 </r>
       <r>    9.8038    1.0000 </r>
       <r>   10.2605    1.0000 </r>
       <r>   12.4262   -0.0152 </r>
       <r>   12.7798   -0.0005 </r>
       <r>   13.7742   -0.0000 </r>
       <r>   16.9957   -0.0000 </r>
       <r>   17.0132   -0.0000 </r>
       <r>   18.1108    0.0000 </r>
       <r>   18.5750    0.0000 </r>
       <r>   19.3609    0.0000 </r>
       <r>   20.7572    0.0000 </r>
      </set>
      <set comment="kpoint 37">
       <r>    0.8611    1.0000 </r>
       <r>    2.3748    1.0000 </r>
       <r>    8.1201    1.0000 </r>
       <r>    9.4038    1.0000 </r>
       <r>   10.5651    1.0000 </r>
       <r>   11.8996    1.0181 </r>
       <r>   13.0020   -0.0000 </r>
       <r>   13.6732   -0.0000 </r>
       <r>   16.9599   -0.0000 </r>
       <r>   17.3883   -0.0000 </r>
       <r>   17.6781   -0.0000 </r>
       <r>   18.8067    0.0000 </r>
       <r>   19.4210    0.0000 </r>
       <r>   21.2688    0.0000 </r>
      </set>
      <set comment="kpoint 38">
       <r>    1.3225    1.0000 </r>
       <r>    1.8273    1.0000 </r>
       <r>    8.5247    1.0000 </r>
       <r>    8.9572    1.0000 </r>
       <r>   10.9636    1.0000 </r>
       <r>   11.4105    1.0000 </r>
       <r>   13.2521   -0.0000 </r>
       <r>   13.4892   -0.0000 </r>
       <r>   17.0721   -0.0000 </r>
       <r>   17.3227   -0.0000 </r>
       <r>   17.8204    0.0000 </r>
       <r>   18.2931    0.0000 </r>
       <r>   20.1160    0.0000 </r>
       <r>   20.7121    0.0000 </r>
      </set>
      <set comment="kpoint 39">
       <r>   -0.5835    1.0000 </r>
       <r>    5.8854    1.0000 </r>
       <r>    5.8854    1.0000 </r>
       <r>    9.2380    1.0000 </r>
       <r>   10.8407    1.0000 </r>
       <r>   12.8765   -0.0000 </r>
       <r>   14.4016   -0.0000 </r>
       <r>   14.4016   -0.0000 </r>
       <r>   15.2252   -0.0000 </r>
       <r>   15.2252   -0.0000 </r>
       <r>   18.7578    0.0000 </r>
       <r>   18.7578    0.0000 </r>
       <r>   20.6416    0.0000 </r>
       <r>   21.2223    0.0000 </r>
      </set>
      <set comment="kpoint 40">
       <r>   -0.3490    1.0000 </r>
       <r>    5.1459    1.0000 </r>
       <r>    6.1013    1.0000 </r>
       <r>    9.4347    1.0000 </r>
       <r>   10.6259    1.0000 </r>
       <r>   12.6354   -0.0088 </r>
       <r>   14.2978   -0.0000 </r>
       <r>   14.7085   -0.0000 </r>
       <r>   15.2298   -0.0000 </r>
       <r>   15.6320   -0.0000 </r>
       <r>   18.3028    0.0000 </r>
       <r>   19.0525    0.0000 </r>
       <r>   20.4891    0.0000 </r>
       <r>   20.5141    0.0000 </r>
      </set>
      <set comment="kpoint 41">
       <r>   -0.0684    1.0000 </r>
       <r>    4.4408    1.0000 </r>
       <r>    6.3593    1.0000 </r>
       <r>    9.6484    1.0000 </r>
       <r>   10.2762    1.0000 </r>
       <r>   12.6146   -0.0120 </r>
       <r>   13.7701   -0.0000 </r>
       <r>   14.6158   -0.0000 </r>
       <r>   15.6016   -0.0000 </r>
       <r>   16.5197   -0.0000 </r>
       <r>   17.9256    0.0000 </r>
       <r>   19.4453    0.0000 </r>
       <r>   19.8428    0.0000 </r>
       <r>   20.0376    0.0000 </r>
      </set>
      <set comment="kpoint 42">
       <r>    0.2579    1.0000 </r>
       <r>    3.7730    1.0000 </r>
       <r>    6.6585    1.0000 </r>
       <r>    9.6376    1.0000 </r>
       <r>   10.1004    1.0000 </r>
       <r>   12.7507   -0.0009 </r>
       <r>   13.1741   -0.0000 </r>
       <r>   14.5594   -0.0000 </r>
       <r>   15.9196   -0.0000 </r>
       <r>   17.4414   -0.0000 </r>
       <r>   17.6744   -0.0000 </r>
       <r>   19.2102    0.0000 </r>
       <r>   19.5327    0.0000 </r>
       <r>   19.9764    0.0000 </r>
      </set>
      <set comment="kpoint 43">
       <r>    0.6295    1.0000 </r>
       <r>    3.1444    1.0000 </r>
       <r>    6.9980    1.0000 </r>
       <r>    9.2004    1.0000 </r>
       <r>   10.3629    1.0000 </r>
       <r>   12.6043   -0.0139 </r>
       <r>   12.9804   -0.0000 </r>
       <r>   14.4200   -0.0000 </r>
       <r>   16.2684   -0.0000 </r>
       <r>   17.5846   -0.0000 </r>
       <r>   18.2620    0.0000 </r>
       <r>   18.6174    0.0000 </r>
       <r>   19.0408    0.0000 </r>
       <r>   20.6934    0.0000 </r>
      </set>
      <set comment="kpoint 44">
       <r>    1.0458    1.0000 </r>
       <r>    2.5563    1.0000 </r>
       <r>    7.3763    1.0000 </r>
       <r>    8.7135    1.0000 </r>
       <r>   10.7207    1.0000 </r>
       <r>   12.0716    1.0017 </r>
       <r>   13.2654   -0.0000 </r>
       <r>   14.1901   -0.0000 </r>
       <r>   16.6560   -0.0000 </r>
       <r>   17.6594   -0.0000 </r>
       <r>   18.0653    0.0000 </r>
       <r>   18.5874    0.0000 </r>
       <r>   18.9563    0.0000 </r>
       <r>   20.6592    0.0000 </r>
      </set>
      <set comment="kpoint 45">
       <r>    1.5062    1.0000 </r>
       <r>    2.0100    1.0000 </r>
       <r>    7.7911    1.0000 </r>
       <r>    8.2390    1.0000 </r>
       <r>   11.1279    1.0000 </r>
       <r>   11.5789    1.0000 </r>
       <r>   13.5795   -0.0000 </r>
       <r>   13.8980   -0.0000 </r>
       <r>   17.0844   -0.0000 </r>
       <r>   17.5542   -0.0000 </r>
       <r>   17.8728    0.0000 </r>
       <r>   18.1912    0.0000 </r>
       <r>   19.5574    0.0000 </r>
       <r>   20.1142    0.0000 </r>
      </set>
      <set comment="kpoint 46">
       <r>   -0.1152    1.0000 </r>
       <r>    5.3645    1.0000 </r>
       <r>    5.3645    1.0000 </r>
       <r>    9.6069    1.0000 </r>
       <r>   10.2348    1.0000 </r>
       <r>   12.6026   -0.0142 </r>
       <r>   14.6452   -0.0000 </r>
       <r>   14.6452   -0.0000 </r>
       <r>   15.5236   -0.0000 </r>
       <r>   15.5236   -0.0000 </r>
       <r>   18.6726    0.0000 </r>
       <r>   18.6726    0.0000 </r>
       <r>   19.8047    0.0000 </r>
       <r>   21.0095    0.0000 </r>
      </set>
      <set comment="kpoint 47">
       <r>    0.1648    1.0000 </r>
       <r>    4.6617    1.0000 </r>
       <r>    5.6257    1.0000 </r>
       <r>    9.5541    1.0000 </r>
       <r>   10.0198    1.0000 </r>
       <r>   12.7212   -0.0018 </r>
       <r>   14.0064   -0.0000 </r>
       <r>   14.9221   -0.0000 </r>
       <r>   15.4328   -0.0000 </r>
       <r>   16.3936   -0.0000 </r>
       <r>   18.4048    0.0000 </r>
       <r>   19.1332    0.0000 </r>
       <r>   19.1809    0.0000 </r>
       <r>   20.9056    0.0000 </r>
      </set>
      <set comment="kpoint 48">
       <r>    0.4903    1.0000 </r>
       <r>    3.9960    1.0000 </r>
       <r>    5.9291    1.0000 </r>
       <r>    9.0768    1.0000 </r>
       <r>   10.2411    1.0000 </r>
       <r>   12.9360   -0.0000 </r>
       <r>   13.3943   -0.0000 </r>
       <r>   15.2274   -0.0000 </r>
       <r>   15.2538   -0.0000 </r>
       <r>   17.1771   -0.0000 </r>
       <r>   18.2909    0.0000 </r>
       <r>   18.5011    0.0000 </r>
       <r>   19.8667    0.0000 </r>
       <r>   20.4986    0.0000 </r>
      </set>
      <set comment="kpoint 49">
       <r>    0.8610    1.0000 </r>
       <r>    3.3691    1.0000 </r>
       <r>    6.2736    1.0000 </r>
       <r>    8.5485    1.0000 </r>
       <r>   10.5579    1.0000 </r>
       <r>   12.8190   -0.0002 </r>
       <r>   13.2153   -0.0000 </r>
       <r>   14.9801   -0.0000 </r>
       <r>   15.5713   -0.0000 </r>
       <r>   17.8499    0.0000 </r>
       <r>   17.9095    0.0000 </r>
       <r>   18.3371    0.0000 </r>
       <r>   20.0332    0.0000 </r>
       <r>   20.5963    0.0000 </r>
      </set>
      <set comment="kpoint 50">
       <r>    1.2762    1.0000 </r>
       <r>    2.7827    1.0000 </r>
       <r>    6.6581    1.0000 </r>
       <r>    8.0314    1.0000 </r>
       <r>   10.9244    1.0000 </r>
       <r>   12.2833    0.3275 </r>
       <r>   13.5402   -0.0000 </r>
       <r>   14.6405   -0.0000 </r>
       <r>   15.9559   -0.0000 </r>
       <r>   17.3588   -0.0000 </r>
       <r>   18.4380    0.0000 </r>
       <r>   18.5183    0.0000 </r>
       <r>   19.5785    0.0000 </r>
       <r>   20.0474    0.0000 </r>
      </set>
      <set comment="kpoint 51">
       <r>    1.7354    1.0000 </r>
       <r>    2.2378    1.0000 </r>
       <r>    7.0810    1.0000 </r>
       <r>    7.5401    1.0000 </r>
       <r>   11.3352    1.0000 </r>
       <r>   11.7884    1.0031 </r>
       <r>   13.8968   -0.0000 </r>
       <r>   14.2701   -0.0000 </r>
       <r>   16.3819   -0.0000 </r>
       <r>   16.8496   -0.0000 </r>
       <r>   18.8022    0.0000 </r>
       <r>   18.9818    0.0000 </r>
       <r>   19.1622    0.0000 </r>
       <r>   19.5123    0.0000 </r>
      </set>
      <set comment="kpoint 52">
       <r>    0.4438    1.0000 </r>
       <r>    4.9258    1.0000 </r>
       <r>    4.9258    1.0000 </r>
       <r>    9.0354    1.0000 </r>
       <r>   10.2004    1.0000 </r>
       <r>   12.9170   -0.0000 </r>
       <r>   14.2689   -0.0000 </r>
       <r>   14.2689   -0.0000 </r>
       <r>   16.1733   -0.0000 </r>
       <r>   16.1733   -0.0000 </r>
       <r>   18.4620    0.0000 </r>
       <r>   19.0583    0.0000 </r>
       <r>   19.0583    0.0000 </r>
       <r>   21.1443    0.0000 </r>
      </set>
      <set comment="kpoint 53">
       <r>    0.7684    1.0000 </r>
       <r>    4.2626    1.0000 </r>
       <r>    5.2326    1.0000 </r>
       <r>    8.4654    1.0000 </r>
       <r>   10.4763    1.0000 </r>
       <r>   13.1770   -0.0000 </r>
       <r>   13.6518   -0.0000 </r>
       <r>   14.5694   -0.0000 </r>
       <r>   15.8558   -0.0000 </r>
       <r>   16.8139   -0.0000 </r>
       <r>   17.8306    0.0000 </r>
       <r>   19.0869    0.0000 </r>
       <r>   19.8935    0.0000 </r>
       <r>   20.5585    0.0000 </r>
      </set>
      <set comment="kpoint 54">
       <r>    1.1379    1.0000 </r>
       <r>    3.6381    1.0000 </r>
       <r>    5.5814    1.0000 </r>
       <r>    7.9058    1.0000 </r>
       <r>   10.8020    1.0000 </r>
       <r>   13.0737   -0.0000 </r>
[...]
       <r>    4.2528    1.0000 </r>
       <r>    5.6571    1.0000 </r>
       <r>    5.6571    1.0000 </r>
       <r>    6.3721    1.0000 </r>
       <r>    7.6478    1.0000 </r>
       <r>    8.3539    1.0000 </r>
       <r>    8.3539    1.0000 </r>
       <r>    9.7241    1.0000 </r>
       <r>   22.7064    0.0000 </r>
       <r>   23.3049    0.0000 </r>
       <r>   23.3049    0.0000 </r>
       <r>   24.3204    0.0000 </r>
       <r>   24.3205    0.0000 </r>
       <r>   24.4121    0.0000 </r>
      </set>
      <set comment="kpoint 281">
       <r>    4.6888    1.0000 </r>
       <r>    5.1598    1.0000 </r>
       <r>    6.0292    1.0000 </r>
       <r>    6.3299    1.0000 </r>
       <r>    7.6037    1.0000 </r>
       <r>    7.9015    1.0000 </r>
       <r>    8.7562    1.0000 </r>
       <r>    9.2157    1.0000 </r>
       <r>   23.0410    0.0000 </r>
       <r>   23.2663    0.0000 </r>
       <r>   24.1098    0.0000 </r>
       <r>   24.4731    0.0000 </r>
       <r>   24.5641    0.0000 </r>
       <r>   24.6556    0.0000 </r>
      </set>
      <set comment="kpoint 282">
       <r>    5.1160    1.0000 </r>
       <r>    5.5705    1.0000 </r>
       <r>    5.5705    1.0000 </r>
       <r>    5.9863    1.0000 </r>
       <r>    7.8580    1.0000 </r>
       <r>    8.2679    1.0000 </r>
       <r>    8.2679    1.0000 </r>
       <r>    8.7136    1.0000 </r>
       <r>   23.4825    0.0000 </r>
       <r>   23.8403    0.0000 </r>
       <r>   23.8403    0.0000 </r>
       <r>   24.2742    0.0000 </r>
       <r>   25.0412    0.0000 </r>
       <r>   25.1270    0.0000 </r>
      </set>
      <set comment="kpoint 283">
       <r>    4.6447    1.0000 </r>
       <r>    5.9862    1.0000 </r>
       <r>    5.9862    1.0000 </r>
       <r>    5.9862    1.0000 </r>
       <r>    7.8582    1.0000 </r>
       <r>    7.8582    1.0000 </r>
       <r>    7.8582    1.0000 </r>
       <r>    9.1736    1.0000 </r>
       <r>   23.7874    0.0000 </r>
       <r>   23.7874    0.0000 </r>
       <r>   23.7874    0.0000 </r>
       <r>   24.6874    0.0000 </r>
       <r>   24.6875    0.0000 </r>
       <r>   24.6898    0.0000 </r>
      </set>
      <set comment="kpoint 284">
       <r>    5.0722    1.0000 </r>
       <r>    5.5270    1.0000 </r>
       <r>    6.2453    1.0000 </r>
       <r>    6.2453    1.0000 </r>
       <r>    7.5157    1.0000 </r>
       <r>    7.5157    1.0000 </r>
       <r>    8.2250    1.0000 </r>
       <r>    8.6712    1.0000 </r>
       <r>   24.0247    0.0000 </r>
       <r>   24.0248    0.0000 </r>
       <r>   24.7636    0.0000 </r>
       <r>   24.8685    0.0000 </r>
       <r>   24.8731    0.0000 </r>
       <r>   24.9835    0.0000 </r>
      </set>
      <set comment="kpoint 285">
       <r>    5.4837    1.0000 </r>
       <r>    5.9005    1.0000 </r>
       <r>    5.9005    1.0000 </r>
       <r>    6.2030    1.0000 </r>
       <r>    7.4715    1.0000 </r>
       <r>    7.7710    1.0000 </r>
       <r>    7.7710    1.0000 </r>
       <r>    8.1820    1.0000 </r>
       <r>   24.4900    0.0000 </r>
       <r>   24.7445    0.0000 </r>
       <r>   24.7450    0.0000 </r>
       <r>   25.1456    0.0000 </r>
       <r>   25.2533    0.0000 </r>
       <r>   25.2872    0.0000 </r>
      </set>
      <set comment="kpoint 286">
       <r>    5.8576    1.0000 </r>
       <r>    6.1607    1.0000 </r>
       <r>    6.1607    1.0000 </r>
       <r>    6.1607    1.0000 </r>
       <r>    7.4273    1.0000 </r>
       <r>    7.4273    1.0000 </r>
       <r>    7.4273    1.0000 </r>
       <r>    7.7274    1.0000 </r>
       <r>   25.2860    0.0000 </r>
       <r>   25.2954    0.0000 </r>
       <r>   25.3063    0.0000 </r>
       <r>   25.4300    0.0000 </r>
       <r>   25.4311    0.0000 </r>
       <r>   25.4521    0.0000 </r>
      </set>
     </set>
    </set>
   </array>
  </eigenvalues>
  <separator name="orbital magnetization" >
   <v name="MAGDIPOLOUT">      0.00000000      0.00000000      0.00000000</v>
  </separator>
  <dos>
   <i name="efermi">     12.24152073 </i>
   <total>
    <array>
     <dimension dim="1">gridpoints</dimension>
     <dimension dim="2">spin</dimension>
     <field>energy</field>
     <field>total</field>
     <field>integrated</field>
     <set>
      <set comment="spin 1">
       <r>    -3.5272     0.0000     0.0000 </r>
       <r>    -3.4240     0.0000     0.0000 </r>
       <r>    -3.3207     0.0000     0.0000 </r>
       <r>    -3.2174    -0.0000    -0.0000 </r>
       <r>    -3.1142    -0.0000    -0.0000 </r>
       <r>    -3.0109    -0.0000    -0.0000 </r>
       <r>    -2.9076    -0.0000    -0.0000 </r>
       <r>    -2.8044    -0.0000    -0.0000 </r>
       <r>    -2.7011    -0.0000    -0.0000 </r>
       <r>    -2.5978    -0.0000    -0.0000 </r>
       <r>    -2.4946    -0.0000    -0.0000 </r>
       <r>    -2.3913    -0.0000    -0.0000 </r>
       <r>    -2.2881    -0.0000    -0.0000 </r>
       <r>    -2.1848    -0.0000    -0.0000 </r>
       <r>    -2.0815    -0.0000    -0.0000 </r>
       <r>    -1.9783    -0.0001    -0.0000 </r>
       <r>    -1.8750    -0.0008    -0.0001 </r>
       <r>    -1.7717    -0.0028    -0.0004 </r>
       <r>    -1.6685    -0.0029    -0.0007 </r>
       <r>    -1.5652     0.0121     0.0006 </r>
       <r>    -1.4619     0.0536     0.0061 </r>
       <r>    -1.3587     0.1090     0.0174 </r>
       <r>    -1.2554     0.1561     0.0335 </r>
       <r>    -1.1521     0.1901     0.0531 </r>
       <r>    -1.0489     0.2174     0.0756 </r>
       <r>    -0.9456     0.2408     0.1004 </r>
       <r>    -0.8424     0.2627     0.1275 </r>
       <r>    -0.7391     0.2849     0.1570 </r>
       <r>    -0.6358     0.3009     0.1880 </r>
       <r>    -0.5326     0.3201     0.2211 </r>
       <r>    -0.4293     0.3419     0.2564 </r>
       <r>    -0.3260     0.3521     0.2928 </r>
       <r>    -0.2228     0.3657     0.3305 </r>
       <r>    -0.1195     0.3921     0.3710 </r>
       <r>    -0.0162     0.4049     0.4128 </r>
       <r>     0.0870     0.4026     0.4544 </r>
       <r>     0.1903     0.4275     0.4985 </r>
       <r>     0.2936     0.4573     0.5458 </r>
       <r>     0.3968     0.4540     0.5927 </r>
       <r>     0.5001     0.4542     0.6396 </r>
       <r>     0.6033     0.4793     0.6891 </r>
       <r>     0.7066     0.5056     0.7413 </r>
       <r>     0.8099     0.5165     0.7946 </r>
       <r>     0.9131     0.5080     0.8471 </r>
       <r>     1.0164     0.5046     0.8992 </r>
       <r>     1.1197     0.5479     0.9557 </r>
       <r>     1.2229     0.5870     1.0164 </r>
       <r>     1.3262     0.5617     1.0744 </r>
       <r>     1.4295     0.5389     1.1300 </r>
       <r>     1.5327     0.5785     1.1897 </r>
       <r>     1.6360     0.6178     1.2535 </r>
       <r>     1.7393     0.6194     1.3175 </r>
       <r>     1.8425     0.6203     1.3816 </r>
       <r>     1.9458     0.6177     1.4453 </r>
       <r>     2.0490     0.6148     1.5088 </r>
       <r>     2.1523     0.6365     1.5746 </r>
       <r>     2.2556     0.6835     1.6451 </r>
       <r>     2.3588     0.7069     1.7181 </r>
       <r>     2.4621     0.6757     1.7879 </r>
       <r>     2.5654     0.6375     1.8537 </r>
       <r>     2.6686     0.6619     1.9221 </r>
       <r>     2.7719     0.7436     1.9989 </r>
       <r>     2.8752     0.7709     2.0785 </r>
       <r>     2.9784     0.7201     2.1528 </r>
       <r>     3.0817     0.7016     2.2253 </r>
       <r>     3.1850     0.7375     2.3015 </r>
       <r>     3.2882     0.7527     2.3792 </r>
       <r>     3.3915     0.7547     2.4571 </r>
       <r>     3.4947     0.7829     2.5380 </r>
       <r>     3.5980     0.8175     2.6224 </r>
       <r>     3.7013     0.8220     2.7073 </r>
       <r>     3.8045     0.7785     2.7876 </r>
       <r>     3.9078     0.7413     2.8642 </r>
       <r>     4.0111     0.7959     2.9464 </r>
       <r>     4.1143     0.8775     3.0370 </r>
       <r>     4.2176     0.8923     3.1291 </r>
       <r>     4.3209     0.8760     3.2196 </r>
       <r>     4.4241     0.8283     3.3051 </r>
       <r>     4.5274     0.7947     3.3872 </r>
       <r>     4.6307     0.8570     3.4757 </r>
       <r>     4.7339     0.9298     3.5717 </r>
       <r>     4.8372     0.9222     3.6669 </r>
       <r>     4.9404     0.9033     3.7602 </r>
       <r>     5.0437     0.9142     3.8546 </r>
       <r>     5.1470     0.9367     3.9514 </r>
       <r>     5.2502     0.9491     4.0494 </r>
       <r>     5.3535     0.9097     4.1433 </r>
       <r>     5.4568     0.8867     4.2349 </r>
       <r>     5.5600     0.9664     4.3347 </r>
       <r>     5.6633     1.0619     4.4443 </r>
       <r>     5.7666     1.0600     4.5538 </r>
       <r>     5.8698     1.0088     4.6580 </r>
       <r>     5.9731     0.9764     4.7588 </r>
       <r>     6.0764     0.9780     4.8598 </r>
       <r>     6.1796     1.0474     4.9679 </r>
       <r>     6.2829     1.1567     5.0874 </r>
       <r>     6.3861     1.2040     5.2117 </r>
       <r>     6.4894     1.1326     5.3287 </r>
       <r>     6.5927     1.0311     5.4351 </r>
       <r>     6.6959     1.0288     5.5414 </r>
       <r>     6.7992     1.0543     5.6502 </r>
       <r>     6.9025     1.0092     5.7545 </r>
       <r>     7.0057     0.9783     5.8555 </r>
       <r>     7.1090     0.9924     5.9580 </r>
       <r>     7.2123     0.9627     6.0574 </r>
       <r>     7.3155     0.9443     6.1549 </r>
       <r>     7.4188     1.0301     6.2613 </r>
       <r>     7.5221     1.0724     6.3720 </r>
       <r>     7.6253     0.9630     6.4714 </r>
       <r>     7.7286     0.8954     6.5639 </r>
       <r>     7.8318     1.0229     6.6695 </r>
       <r>     7.9351     1.1985     6.7933 </r>
       <r>     8.0384     1.2060     6.9178 </r>
       <r>     8.1416     1.1061     7.0321 </r>
       <r>     8.2449     1.0620     7.1417 </r>
       <r>     8.3482     1.0676     7.2520 </r>
       <r>     8.4514     1.1574     7.3715 </r>
       <r>     8.5547     1.3123     7.5070 </r>
       <r>     8.6580     1.2992     7.6412 </r>
       <r>     8.7612     1.1584     7.7608 </r>
       <r>     8.8645     1.1582     7.8804 </r>
       <r>     8.9678     1.2434     8.0088 </r>
       <r>     9.0710     1.2104     8.1338 </r>
       <r>     9.1743     1.1671     8.2543 </r>
       <r>     9.2775     1.2188     8.3802 </r>
       <r>     9.3808     1.1803     8.5020 </r>
       <r>     9.4841     1.0625     8.6118 </r>
       <r>     9.5873     1.0894     8.7243 </r>
       <r>     9.6906     1.1771     8.8458 </r>
       <r>     9.7939     1.1385     8.9634 </r>
       <r>     9.8971     1.0988     9.0768 </r>
       <r>    10.0004     1.1600     9.1966 </r>
       <r>    10.1037     1.1660     9.3170 </r>
       <r>    10.2069     1.1637     9.4372 </r>
       <r>    10.3102     1.2510     9.5664 </r>
       <r>    10.4134     1.2752     9.6981 </r>
       <r>    10.5167     1.2567     9.8278 </r>
       <r>    10.6200     1.3301     9.9652 </r>
       <r>    10.7232     1.4148    10.1113 </r>
       <r>    10.8265     1.4547    10.2615 </r>
       <r>    10.9298     1.4799    10.4143 </r>
       <r>    11.0330     1.4337    10.5624 </r>
       <r>    11.1363     1.3297    10.6997 </r>
       <r>    11.2396     1.2648    10.8303 </r>
       <r>    11.3428     1.2974    10.9643 </r>
       <r>    11.4461     1.3781    11.1066 </r>
       <r>    11.5494     1.3884    11.2500 </r>
       <r>    11.6526     1.2813    11.3823 </r>
       <r>    11.7559     1.1327    11.4992 </r>
       <r>    11.8591     1.0271    11.6053 </r>
       <r>    11.9624     0.9765    11.7061 </r>
       <r>    12.0657     0.9845    11.8078 </r>
       <r>    12.1689     1.0496    11.9162 </r>
       <r>    12.2722     1.1761    12.0376 </r>
       <r>    12.3755     1.2803    12.1698 </r>
       <r>    12.4787     1.2702    12.3010 </r>
       <r>    12.5820     1.2471    12.4298 </r>
       <r>    12.6853     1.2813    12.5621 </r>
       <r>    12.7885     1.2768    12.6939 </r>
       <r>    12.8918     1.2636    12.8244 </r>
       <r>    12.9951     1.3446    12.9633 </r>
       <r>    13.0983     1.4586    13.1139 </r>
       <r>    13.2016     1.4989    13.2687 </r>
       <r>    13.3048     1.5044    13.4240 </r>
       <r>    13.4081     1.5267    13.5817 </r>
       <r>    13.5114     1.4764    13.7341 </r>
       <r>    13.6146     1.3363    13.8721 </r>
       <r>    13.7179     1.2905    14.0054 </r>
       <r>    13.8212     1.3245    14.1422 </r>
       <r>    13.9244     1.3070    14.2771 </r>
       <r>    14.0277     1.3380    14.4153 </r>
       <r>    14.1310     1.4004    14.5599 </r>
       <r>    14.2342     1.3928    14.7038 </r>
       <r>    14.3375     1.4195    14.8503 </r>
       <r>    14.4408     1.4744    15.0026 </r>
       <r>    14.5440     1.4728    15.1547 </r>
       <r>    14.6473     1.4215    15.3015 </r>
       <r>    14.7505     1.2795    15.4336 </r>
       <r>    14.8538     1.1295    15.5502 </r>
       <r>    14.9571     1.1329    15.6672 </r>
       <r>    15.0603     1.2321    15.7945 </r>
       <r>    15.1636     1.3556    15.9344 </r>
       <r>    15.2669     1.4618    16.0854 </r>
       <r>    15.3701     1.4540    16.2355 </r>
       <r>    15.4734     1.3988    16.3800 </r>
       <r>    15.5767     1.3106    16.5153 </r>
       <r>    15.6799     1.1434    16.6334 </r>
       <r>    15.7832     1.0957    16.7466 </r>
       <r>    15.8865     1.2505    16.8757 </r>
       <r>    15.9897     1.3610    17.0162 </r>
       <r>    16.0930     1.3609    17.1568 </r>
       <r>    16.1962     1.3822    17.2995 </r>
       <r>    16.2995     1.4039    17.4445 </r>
       <r>    16.4028     1.4119    17.5903 </r>
       <r>    16.5060     1.4182    17.7367 </r>
       <r>    16.6093     1.4156    17.8829 </r>
       <r>    16.7126     1.4304    18.0306 </r>
       <r>    16.8158     1.4587    18.1812 </r>
       <r>    16.9191     1.4170    18.3276 </r>
       <r>    17.0224     1.2865    18.4604 </r>
       <r>    17.1256     1.3123    18.5959 </r>
       <r>    17.2289     1.5713    18.7582 </r>
       <r>    17.3322     1.6957    18.9333 </r>
       <r>    17.4354     1.4810    19.0862 </r>
       <r>    17.5387     1.2769    19.2181 </r>
       <r>    17.6419     1.3422    19.3567 </r>
       <r>    17.7452     1.5119    19.5128 </r>
       <r>    17.8485     1.6368    19.6819 </r>
       <r>    17.9517     1.6047    19.8476 </r>
       <r>    18.0550     1.4473    19.9970 </r>
       <r>    18.1583     1.4281    20.1445 </r>
       <r>    18.2615     1.5183    20.3013 </r>
       <r>    18.3648     1.4832    20.4544 </r>
       <r>    18.4681     1.4003    20.5990 </r>
       <r>    18.5713     1.4994    20.7539 </r>
       <r>    18.6746     1.6732    20.9266 </r>
       <r>    18.7779     1.6714    21.0992 </r>
       <r>    18.8811     1.5821    21.2626 </r>
       <r>    18.9844     1.5348    21.4211 </r>
       <r>    19.0876     1.5368    21.5798 </r>
       <r>    19.1909     1.6206    21.7472 </r>
       <r>    19.2942     1.7220    21.9250 </r>
       <r>    19.3974     1.7795    22.1087 </r>
       <r>    19.5007     1.8028    22.2949 </r>
       <r>    19.6040     1.7348    22.4741 </r>
       <r>    19.7072     1.5959    22.6389 </r>
       <r>    19.8105     1.5593    22.7999 </r>
       <r>    19.9138     1.7675    22.9824 </r>
       <r>    20.0170     2.1564    23.2051 </r>
       <r>    20.1203     2.3610    23.4489 </r>
       <r>    20.2236     2.1331    23.6692 </r>
       <r>    20.3268     1.7385    23.8487 </r>
       <r>    20.4301     1.5591    24.0097 </r>
       <r>    20.5333     1.7177    24.1871 </r>
       <r>    20.6366     1.9923    24.3928 </r>
       <r>    20.7399     2.0450    24.6040 </r>
       <r>    20.8431     1.8594    24.7960 </r>
       <r>    20.9464     1.7130    24.9729 </r>
       <r>    21.0497     1.7267    25.1512 </r>
       <r>    21.1529     1.7376    25.3306 </r>
       <r>    21.2562     1.6267    25.4986 </r>
       <r>    21.3595     1.5241    25.6560 </r>
       <r>    21.4627     1.5452    25.8156 </r>
       <r>    21.5660     1.6099    25.9818 </r>
       <r>    21.6693     1.5799    26.1449 </r>
       <r>    21.7725     1.3945    26.2889 </r>
       <r>    21.8758     1.1624    26.4090 </r>
       <r>    21.9790     1.0596    26.5184 </r>
       <r>    22.0823     1.0128    26.6230 </r>
       <r>    22.1856     0.8998    26.7159 </r>
       <r>    22.2888     0.8149    26.8000 </r>
       <r>    22.3921     0.7928    26.8819 </r>
       <r>    22.4954     0.7798    26.9624 </r>
       <r>    22.5986     0.7604    27.0410 </r>
       <r>    22.7019     0.7078    27.1141 </r>
       <r>    22.8052     0.6421    27.1804 </r>
       <r>    22.9084     0.5915    27.2414 </r>
       <r>    23.0117     0.5575    27.2990 </r>
       <r>    23.1150     0.5495    27.3558 </r>
       <r>    23.2182     0.5699    27.4146 </r>
       <r>    23.3215     0.6040    27.4770 </r>
       <r>    23.4247     0.6015    27.5391 </r>
       <r>    23.5280     0.5199    27.5928 </r>
       <r>    23.6313     0.3975    27.6338 </r>
       <r>    23.7345     0.3078    27.6656 </r>
       <r>    23.8378     0.2882    27.6954 </r>
       <r>    23.9411     0.3251    27.7290 </r>
       <r>    24.0443     0.3695    27.7671 </r>
       <r>    24.1476     0.3693    27.8052 </r>
       <r>    24.2509     0.3061    27.8369 </r>
       <r>    24.3541     0.2347    27.8611 </r>
       <r>    24.4574     0.2017    27.8819 </r>
       <r>    24.5607     0.1909    27.9016 </r>
       <r>    24.6639     0.1845    27.9207 </r>
       <r>    24.7672     0.1743    27.9387 </r>
       <r>    24.8704     0.1461    27.9538 </r>
       <r>    24.9737     0.1078    27.9649 </r>
       <r>    25.0770     0.0821    27.9734 </r>
       <r>    25.1802     0.0767    27.9813 </r>
       <r>    25.2835     0.0773    27.9893 </r>
       <r>    25.3868     0.0626    27.9957 </r>
       <r>    25.4900     0.0340    27.9992 </r>
       <r>    25.5933     0.0101    28.0003 </r>
       <r>    25.6966    -0.0004    28.0002 </r>
       <r>    25.7998    -0.0016    28.0001 </r>
       <r>    25.9031    -0.0006    28.0000 </r>
       <r>    26.0064    -0.0001    28.0000 </r>
       <r>    26.1096    -0.0000    28.0000 </r>
       <r>    26.2129    -0.0000    28.0000 </r>
       <r>    26.3161    -0.0000    28.0000 </r>
       <r>    26.4194    -0.0000    28.0000 </r>
       <r>    26.5227    -0.0000    28.0000 </r>
       <r>    26.6259    -0.0000    28.0000 </r>
       <r>    26.7292    -0.0000    28.0000 </r>
       <r>    26.8325     0.0000    28.0000 </r>
       <r>    26.9357     0.0000    28.0000 </r>
       <r>    27.0390     0.0000    28.0000 </r>
       <r>    27.1423     0.0000    28.0000 </r>
       <r>    27.2455     0.0000    28.0000 </r>
       <r>    27.3488     0.0000    28.0000 </r>
       <r>    27.4521     0.0000    28.0000 </r>
      </set>
     </set>
    </array>
   </total>
  </dos>
 </calculation>
 <structure name="finalpos" >
  <crystal>
   <varray name="basis" >
    <v>       3.58618184       0.00000000       0.00000000 </v>
    <v>      -0.00000000       3.58618184       0.00000000 </v>
    <v>       0.00000000       0.00000000       3.58618184 </v>
   </varray>
   <i name="volume">     46.12080937 </i>
   <varray name="rec_basis" >
    <v>       0.27884810       0.00000000      -0.00000000 </v>
    <v>       0.00000000       0.27884810       0.00000000 </v>
    <v>      -0.00000000      -0.00000000       0.27884810 </v>
   </varray>
  </crystal>
  <varray name="positions" >
   <v>       0.00000000       0.00000000       0.00000000 </v>
   <v>       0.00000000       0.50000000       0.50000000 </v>
   <v>       0.50000000       0.00000000       0.50000000 </v>
   <v>       0.50000000       0.50000000       0.00000000 </v>
  </varray>
 </structure>
</modeling>
