ITEM: TIMESTEP
0
ITEM: NUMBER OF ATOMS
4
ITEM: BOX BOUNDS xy xz yz pp pp pp
0.0000000000000000e+00 4.2898845784999997e+00 -0.0000000000000000e+00
0.0000000000000000e+00 4.2898845784999997e+00 -0.0000000000000000e+00
0.0000000000000000e+00 4.2898845784999997e+00 -0.0000000000000000e+00
ITEM: ATOMS id type xs ys zs fx fy fz
1 1 0 0 0 1.01467e-10 1.01467e-10 1.01467e-10
4 1 0.5 0 0.5 -1.01467e-10 1.01467e-10 -1.01467e-10
3 1 0.5 0.5 0 -1.01467e-10 -1.01467e-10 1.01467e-10
2 1 0 0.5 0.5 1.01467e-10 -1.01467e-10 -1.01467e-10
ITEM: TIMESTEP
1
ITEM: NUMBER OF ATOMS
4
ITEM: BOX BOUNDS xy xz yz pp pp pp
0.0000000000000000e+00 4.2898845784999997e+00 -0.0000000000000000e+00
0.0000000000000000e+00 4.2898845784999997e+00 -0.0000000000000000e+00
0.0000000000000000e+00 4.2898845784999997e+00 -0.0000000000000000e+00
ITEM: ATOMS id type xs ys zs fx fy fz
1 1 5.82766e-12 5.82767e-12 5.82766e-12 5.55112e-16 6.43365e-16 5.91853e-16
4 1 0.5 5.82766e-12 0.5 -4.57967e-16 9.99796e-16 -7.03344e-16
3 1 0.5 0.5 5.82766e-12 -4.23273e-16 -8.08379e-16 8.81035e-16
2 1 5.82768e-12 0.5 0.5 3.33067e-16 -8.66384e-16 -8.22701e-16
