 running   14 mpi-ranks, with    2 threads/rank, on    1 nodes
 distrk:  each k-point on   14 cores,    1 groups
 distr:  one band on    1 cores,   14 groups
 vasp.6.4.2 20Jul23 (build Apr 22 2024 22:35:45) complex                         
 POSCAR found type information on POSCAR Al
 POSCAR found :  1 types and       4 ions
 scaLAPACK will be used
 -----------------------------------------------------------------------------
|                                                                             |
|               ----> ADVICE to this user running VASP <----                  |
|                                                                             |
|     You have a (more or less) 'small supercell' and for smaller cells       |
|     it is recommended to use the reciprocal-space projection scheme!        |
|     The real-space optimization is not efficient for small cells and it     |
|     is also less accurate ...                                               |
|     Therefore, set LREAL=.FALSE. in the INCAR file.                         |
|                                                                             |
 -----------------------------------------------------------------------------

 LDA part: xc-table for Pade appr. of Perdew
 POSCAR, INCAR and KPOINTS ok, starting setup
 FFT: planning ... GRIDC
 FFT: planning ... GRID_SOFT
 FFT: planning ... GRID
 WAVECAR not read
 entering main loop
       N       E                     dE             d eps       ncg     rms          rms(c)
DAV:   1    -0.273201443425E+01   -0.27320E+01   -0.36279E+03  6160   0.509E+02
DAV:   2    -0.145432584012E+02   -0.11811E+02   -0.11545E+02  9086   0.441E+01
DAV:   3    -0.146156425815E+02   -0.72384E-01   -0.72066E-01  8120   0.474E+00
DAV:   4    -0.146158466105E+02   -0.20403E-03   -0.20403E-03 10220   0.257E-01
DAV:   5    -0.146158467464E+02   -0.13596E-06   -0.13646E-06  8190   0.480E-03    0.209E+00
RMM:   6    -0.145684185928E+02    0.47428E-01   -0.82198E-03  6160   0.526E-01    0.123E+00
RMM:   7    -0.145343989191E+02    0.34020E-01   -0.24259E-02  6160   0.872E-01    0.206E-01
RMM:   8    -0.145343767325E+02    0.22187E-04   -0.55003E-04  6160   0.153E-01    0.288E-02
RMM:   9    -0.145343819092E+02   -0.51767E-05   -0.10198E-04  6160   0.637E-02    0.179E-02
RMM:  10    -0.145343843883E+02   -0.24791E-05   -0.26867E-05  6160   0.382E-02    0.930E-03
RMM:  11    -0.145343787666E+02    0.56217E-05   -0.65847E-06  6157   0.153E-02    0.225E-03
RMM:  12    -0.145343793875E+02   -0.62090E-06   -0.17812E-06  4938   0.102E-02
   1 F= -.14534379E+02 E0= -.14533934E+02  d E =-.145344E+02
 curvature:   0.00 expect dE= 0.000E+00 dE for cont linesearch  0.000E+00
 trial: gam= 0.00000 g(F)=  0.791E-64 g(S)=  0.443E-31 ort = 0.000E+00 (trialstep = 0.100E+01)
 search vector abs. value=  0.100E-09
 reached required accuracy - stopping structural energy minimisation
