
4 atoms
1 atom types
   0.0000000000    3.4159013557 xlo xhi
   0.0000000000    3.4159013557 ylo yhi
   0.0000000000    3.4159013557 zlo zhi
   0.0000000000    0.0000000000    0.0000000000 xy xz yz

Atoms # atomic

     1      1    0.0000000000    0.0000000000    0.0000000000
     2      1    0.0000000000    1.7079506779    1.7079506779
     3      1    1.7079506779    1.7079506779    0.0000000000
     4      1    1.7079506779    0.0000000000    1.7079506779
