ITEM: TIMESTEP
0
ITEM: NUMBER OF ATOMS
4
ITEM: BOX BOUNDS xy xz yz pp pp pp
0.0000000000000000e+00 3.4159013557000000e+00 0.0000000000000000e+00
0.0000000000000000e+00 3.4159013557000000e+00 0.0000000000000000e+00
0.0000000000000000e+00 3.4159013557000000e+00 0.0000000000000000e+00
ITEM: ATOMS id type xs ys zs fx fy fz
1 1 0 0 0 3.64809e-09 3.64809e-09 3.64809e-09
4 1 0.5 0 0.5 -3.64809e-09 3.64809e-09 -3.64809e-09
3 1 0.5 0.5 0 -3.64809e-09 -3.64809e-09 3.64809e-09
2 1 0 0.5 0.5 3.64809e-09 -3.64809e-09 -3.64809e-09
ITEM: TIMESTEP
1
ITEM: NUMBER OF ATOMS
4
ITEM: BOX BOUNDS xy xz yz pp pp pp
0.0000000000000000e+00 3.4159013557000000e+00 0.0000000000000000e+00
0.0000000000000000e+00 3.4159013557000000e+00 0.0000000000000000e+00
0.0000000000000000e+00 3.4159013557000000e+00 0.0000000000000000e+00
ITEM: ATOMS id type xs ys zs fx fy fz
1 1 7.31873e-12 7.31873e-12 7.31873e-12 -1.55431e-14 -1.37668e-14 -9.54792e-15
4 1 0.5 7.31873e-12 0.5 8.88178e-15 -8.88178e-16 3.9968e-15
3 1 0.5 0.5 7.31873e-12 9.76996e-15 7.10543e-15 1.55431e-15
2 1 7.31872e-12 0.5 0.5 -2.66454e-15 7.77156e-15 3.9968e-15
