 running   14 mpi-ranks, with    2 threads/rank, on    1 nodes
 distrk:  each k-point on   14 cores,    1 groups
 distr:  one band on    1 cores,   14 groups
 vasp.6.4.2 20Jul23 (build Apr 22 2024 22:35:45) complex                         
 POSCAR found type information on POSCAR Al
 POSCAR found :  1 types and       4 ions
 scaLAPACK will be used
 -----------------------------------------------------------------------------
|                                                                             |
|               ----> ADVICE to this user running VASP <----                  |
|                                                                             |
|     You have a (more or less) 'small supercell' and for smaller cells       |
|     it is recommended to use the reciprocal-space projection scheme!        |
|     The real-space optimization is not efficient for small cells and it     |
|     is also less accurate ...                                               |
|     Therefore, set LREAL=.FALSE. in the INCAR file.                         |
|                                                                             |
 -----------------------------------------------------------------------------

 LDA part: xc-table for Pade appr. of Perdew
 POSCAR, INCAR and KPOINTS ok, starting setup
 FFT: planning ... GRIDC
 FFT: planning ... GRID_SOFT
 FFT: planning ... GRID
 WAVECAR not read
 entering main loop
       N       E                     dE             d eps       ncg     rms          rms(c)
DAV:   1    -0.233212681992E+01   -0.23321E+01   -0.38478E+03 15470   0.522E+02
DAV:   2    -0.150008284406E+02   -0.12669E+02   -0.12330E+02 22428   0.479E+01
DAV:   3    -0.150739246311E+02   -0.73096E-01   -0.72946E-01 19922   0.494E+00
DAV:   4    -0.150741096147E+02   -0.18498E-03   -0.18498E-03 25522   0.243E-01
DAV:   5    -0.150741097115E+02   -0.96840E-07   -0.96390E-07 20370   0.424E-03    0.258E+00
RMM:   6    -0.150223934006E+02    0.51716E-01   -0.55584E-03 15400   0.433E-01    0.151E+00
RMM:   7    -0.149845717159E+02    0.37822E-01   -0.16916E-02 15400   0.724E-01    0.224E-01
RMM:   8    -0.149845405452E+02    0.31171E-04   -0.57205E-04 15400   0.159E-01    0.278E-02
RMM:   9    -0.149845462238E+02   -0.56786E-05   -0.98921E-05 15400   0.686E-02    0.230E-02
RMM:  10    -0.149845473462E+02   -0.11224E-05   -0.22369E-05 15400   0.335E-02    0.213E-02
RMM:  11    -0.149845427469E+02    0.45993E-05   -0.44941E-06 15205   0.129E-02    0.463E-03
RMM:  12    -0.149845426994E+02    0.47500E-07   -0.12046E-06 11470   0.825E-03
   1 F= -.14984543E+02 E0= -.14985142E+02  d E =-.149845E+02
 curvature:   0.00 expect dE= 0.000E+00 dE for cont linesearch  0.000E+00
 trial: gam= 0.00000 g(F)=  0.472E-63 g(S)=  0.000E+00 ort = 0.000E+00 (trialstep = 0.100E+01)
 search vector abs. value=  0.100E-09
 reached required accuracy - stopping structural energy minimisation
