<?xml version="1.0" encoding="ISO-8859-1"?>
<modeling>
 <generator>
  <i name="program" type="string">vasp </i>
  <i name="version" type="string">6.4.2  </i>
  <i name="subversion" type="string">20Jul23 (build Apr 22 2024 22:35:45) complex                          parallel </i>
  <i name="platform" type="string">LinuxGNU </i>
  <i name="date" type="string">2024 05 26 </i>
  <i name="time" type="string">16:23:11 </i>
 </generator>
 <incar>
  <i type="string" name="SYSTEM">Al fcc relaxation</i>
  <i type="string" name="PREC">Accurate</i>
  <i type="string" name="ALGO">Fast</i>
  <i type="int" name="NELM">    60</i>
  <i type="int" name="NELMIN">     4</i>
  <i type="int" name="IBRION">     2</i>
  <i name="EDIFF">      0.00000100</i>
  <i type="int" name="NSW">   100</i>
  <i type="int" name="ISIF">     2</i>
  <i name="ENCUT">    400.00000000</i>
  <i type="string" name="LREAL">Auto</i>
  <i type="int" name="ISMEAR">     1</i>
  <i name="SIGMA">      0.20000000</i>
  <i name="KSPACING">      0.08000000</i>
  <i type="logical" name="LWAVE"> F  </i>
  <i type="logical" name="LCHARG"> F  </i>
 </incar>
 <primitive_cell>
  <structure name="primitive_cell" >
   <crystal>
    <varray name="basis" >
     <v>       0.00000000      -2.03955952       2.01946485 </v>
     <v>       0.00000000      -2.03955952      -2.01946485 </v>
     <v>       2.01946485       2.03955952       0.00000000 </v>
    </varray>
    <i name="volume">     16.63561936 </i>
    <varray name="rec_basis" >
     <v>       0.24759035      -0.24515097       0.24759035 </v>
     <v>       0.24759035      -0.24515097      -0.24759035 </v>
     <v>       0.49518069       0.00000000      -0.00000000 </v>
    </varray>
   </crystal>
   <varray name="positions" >
    <v>       0.00000000       0.00000000       0.00000000 </v>
   </varray>
  </structure>
  <varray name="primitive_index" >
   <v type="int" >        1 </v>
  </varray>
 </primitive_cell>
 <kpoints>
  <generation param="Monkhorst-Pack">
   <v type="int" name="divisions">      20       20       20 </v>
   <v name="usershift">      0.00000000       0.00000000       0.00000000 </v>
   <v name="genvec1">      0.05000000      -0.00000000       0.00000000 </v>
   <v name="genvec2">      0.00000000       0.05000000       0.00000000 </v>
   <v name="genvec3">      0.00000000       0.00000000       0.05000000 </v>
   <v name="shift">      0.50000000       0.50000000       0.50000000 </v>
  </generation>
  <varray name="kpointlist" >
   <v>       0.02500000       0.02500000       0.02500000 </v>
   <v>       0.07500000       0.02500000       0.02500000 </v>
   <v>       0.12500000       0.02500000       0.02500000 </v>
   <v>       0.17500000       0.02500000       0.02500000 </v>
   <v>       0.22500000       0.02500000       0.02500000 </v>
   <v>       0.27500000       0.02500000       0.02500000 </v>
   <v>       0.32500000       0.02500000       0.02500000 </v>
   <v>       0.37500000       0.02500000       0.02500000 </v>
   <v>       0.42500000       0.02500000       0.02500000 </v>
   <v>       0.47500000       0.02500000       0.02500000 </v>
   <v>       0.02500000       0.07500000       0.02500000 </v>
   <v>       0.07500000       0.07500000       0.02500000 </v>
   <v>       0.12500000       0.07500000       0.02500000 </v>
   <v>       0.17500000       0.07500000       0.02500000 </v>
   <v>       0.22500000       0.07500000       0.02500000 </v>
   <v>       0.27500000       0.07500000       0.02500000 </v>
   <v>       0.32500000       0.07500000       0.02500000 </v>
   <v>       0.37500000       0.07500000       0.02500000 </v>
   <v>       0.42500000       0.07500000       0.02500000 </v>
   <v>       0.47500000       0.07500000       0.02500000 </v>
   <v>       0.02500000       0.12500000       0.02500000 </v>
   <v>       0.07500000       0.12500000       0.02500000 </v>
   <v>       0.12500000       0.12500000       0.02500000 </v>
   <v>       0.17500000       0.12500000       0.02500000 </v>
   <v>       0.22500000       0.12500000       0.02500000 </v>
   <v>       0.27500000       0.12500000       0.02500000 </v>
   <v>       0.32500000       0.12500000       0.02500000 </v>
   <v>       0.37500000       0.12500000       0.02500000 </v>
   <v>       0.42500000       0.12500000       0.02500000 </v>
   <v>       0.47500000       0.12500000       0.02500000 </v>
   <v>       0.02500000       0.17500000       0.02500000 </v>
   <v>       0.07500000       0.17500000       0.02500000 </v>
   <v>       0.12500000       0.17500000       0.02500000 </v>
   <v>       0.17500000       0.17500000       0.02500000 </v>
   <v>       0.22500000       0.17500000       0.02500000 </v>
   <v>       0.27500000       0.17500000       0.02500000 </v>
   <v>       0.32500000       0.17500000       0.02500000 </v>
   <v>       0.37500000       0.17500000       0.02500000 </v>
   <v>       0.42500000       0.17500000       0.02500000 </v>
   <v>       0.47500000       0.17500000       0.02500000 </v>
   <v>       0.02500000       0.22500000       0.02500000 </v>
   <v>       0.07500000       0.22500000       0.02500000 </v>
   <v>       0.12500000       0.22500000       0.02500000 </v>
   <v>       0.17500000       0.22500000       0.02500000 </v>
   <v>       0.22500000       0.22500000       0.02500000 </v>
   <v>       0.27500000       0.22500000       0.02500000 </v>
   <v>       0.32500000       0.22500000       0.02500000 </v>
   <v>       0.37500000       0.22500000       0.02500000 </v>
   <v>       0.42500000       0.22500000       0.02500000 </v>
   <v>       0.47500000       0.22500000       0.02500000 </v>
   <v>       0.02500000       0.27500000       0.02500000 </v>
   <v>       0.07500000       0.27500000       0.02500000 </v>
   <v>       0.12500000       0.27500000       0.02500000 </v>
   <v>       0.17500000       0.27500000       0.02500000 </v>
   <v>       0.22500000       0.27500000       0.02500000 </v>
   <v>       0.27500000       0.27500000       0.02500000 </v>
   <v>       0.32500000       0.27500000       0.02500000 </v>
   <v>       0.37500000       0.27500000       0.02500000 </v>
   <v>       0.42500000       0.27500000       0.02500000 </v>
   <v>       0.47500000       0.27500000       0.02500000 </v>
   <v>       0.02500000       0.32500000       0.02500000 </v>
   <v>       0.07500000       0.32500000       0.02500000 </v>
   <v>       0.12500000       0.32500000       0.02500000 </v>
   <v>       0.17500000       0.32500000       0.02500000 </v>
   <v>       0.22500000       0.32500000       0.02500000 </v>
   <v>       0.27500000       0.32500000       0.02500000 </v>
   <v>       0.32500000       0.32500000       0.02500000 </v>
   <v>       0.37500000       0.32500000       0.02500000 </v>
   <v>       0.42500000       0.32500000       0.02500000 </v>
   <v>       0.47500000       0.32500000       0.02500000 </v>
   <v>       0.02500000       0.37500000       0.02500000 </v>
   <v>       0.07500000       0.37500000       0.02500000 </v>
   <v>       0.12500000       0.37500000       0.02500000 </v>
   <v>       0.17500000       0.37500000       0.02500000 </v>
   <v>       0.22500000       0.37500000       0.02500000 </v>
   <v>       0.27500000       0.37500000       0.02500000 </v>
   <v>       0.32500000       0.37500000       0.02500000 </v>
   <v>       0.37500000       0.37500000       0.02500000 </v>
   <v>       0.42500000       0.37500000       0.02500000 </v>
   <v>       0.47500000       0.37500000       0.02500000 </v>
   <v>       0.02500000       0.42500000       0.02500000 </v>
   <v>       0.07500000       0.42500000       0.02500000 </v>
   <v>       0.12500000       0.42500000       0.02500000 </v>
   <v>       0.17500000       0.42500000       0.02500000 </v>
   <v>       0.22500000       0.42500000       0.02500000 </v>
   <v>       0.27500000       0.42500000       0.02500000 </v>
   <v>       0.32500000       0.42500000       0.02500000 </v>
   <v>       0.37500000       0.42500000       0.02500000 </v>
   <v>       0.42500000       0.42500000       0.02500000 </v>
   <v>       0.47500000       0.42500000       0.02500000 </v>
   <v>       0.02500000       0.47500000       0.02500000 </v>
   <v>       0.07500000       0.47500000       0.02500000 </v>
   <v>       0.12500000       0.47500000       0.02500000 </v>
   <v>       0.17500000       0.47500000       0.02500000 </v>
   <v>       0.22500000       0.47500000       0.02500000 </v>
   <v>       0.27500000       0.47500000       0.02500000 </v>
   <v>       0.32500000       0.47500000       0.02500000 </v>
   <v>       0.37500000       0.47500000       0.02500000 </v>
   <v>       0.42500000       0.47500000       0.02500000 </v>
   <v>       0.47500000       0.47500000       0.02500000 </v>
   <v>       0.07500000       0.02500000       0.07500000 </v>
   <v>       0.12500000       0.02500000       0.07500000 </v>
   <v>       0.17500000       0.02500000       0.07500000 </v>
   <v>       0.22500000       0.02500000       0.07500000 </v>
   <v>       0.27500000       0.02500000       0.07500000 </v>
   <v>       0.32500000       0.02500000       0.07500000 </v>
   <v>       0.37500000       0.02500000       0.07500000 </v>
   <v>       0.42500000       0.02500000       0.07500000 </v>
   <v>       0.47500000       0.02500000       0.07500000 </v>
   <v>       0.07500000       0.07500000       0.07500000 </v>
   <v>       0.12500000       0.07500000       0.07500000 </v>
   <v>       0.17500000       0.07500000       0.07500000 </v>
   <v>       0.22500000       0.07500000       0.07500000 </v>
   <v>       0.27500000       0.07500000       0.07500000 </v>
   <v>       0.32500000       0.07500000       0.07500000 </v>
   <v>       0.37500000       0.07500000       0.07500000 </v>
   <v>       0.42500000       0.07500000       0.07500000 </v>
   <v>       0.47500000       0.07500000       0.07500000 </v>
   <v>       0.07500000       0.12500000       0.07500000 </v>
   <v>       0.12500000       0.12500000       0.07500000 </v>
   <v>       0.17500000       0.12500000       0.07500000 </v>
   <v>       0.22500000       0.12500000       0.07500000 </v>
   <v>       0.27500000       0.12500000       0.07500000 </v>
   <v>       0.32500000       0.12500000       0.07500000 </v>
   <v>       0.37500000       0.12500000       0.07500000 </v>
   <v>       0.42500000       0.12500000       0.07500000 </v>
   <v>       0.47500000       0.12500000       0.07500000 </v>
   <v>       0.07500000       0.17500000       0.07500000 </v>
   <v>       0.12500000       0.17500000       0.07500000 </v>
   <v>       0.17500000       0.17500000       0.07500000 </v>
   <v>       0.22500000       0.17500000       0.07500000 </v>
   <v>       0.27500000       0.17500000       0.07500000 </v>
   <v>       0.32500000       0.17500000       0.07500000 </v>
   <v>       0.37500000       0.17500000       0.07500000 </v>
   <v>       0.42500000       0.17500000       0.07500000 </v>
   <v>       0.47500000       0.17500000       0.07500000 </v>
   <v>       0.07500000       0.22500000       0.07500000 </v>
   <v>       0.12500000       0.22500000       0.07500000 </v>
   <v>       0.17500000       0.22500000       0.07500000 </v>
   <v>       0.22500000       0.22500000       0.07500000 </v>
   <v>       0.27500000       0.22500000       0.07500000 </v>
   <v>       0.32500000       0.22500000       0.07500000 </v>
   <v>       0.37500000       0.22500000       0.07500000 </v>
   <v>       0.42500000       0.22500000       0.07500000 </v>
   <v>       0.47500000       0.22500000       0.07500000 </v>
   <v>       0.07500000       0.27500000       0.07500000 </v>
   <v>       0.12500000       0.27500000       0.07500000 </v>
   <v>       0.17500000       0.27500000       0.07500000 </v>
   <v>       0.22500000       0.27500000       0.07500000 </v>
   <v>       0.27500000       0.27500000       0.07500000 </v>
   <v>       0.32500000       0.27500000       0.07500000 </v>
   <v>       0.37500000       0.27500000       0.07500000 </v>
   <v>       0.42500000       0.27500000       0.07500000 </v>
   <v>       0.47500000       0.27500000       0.07500000 </v>
   <v>       0.07500000       0.32500000       0.07500000 </v>
   <v>       0.12500000       0.32500000       0.07500000 </v>
   <v>       0.17500000       0.32500000       0.07500000 </v>
   <v>       0.22500000       0.32500000       0.07500000 </v>
   <v>       0.27500000       0.32500000       0.07500000 </v>
   <v>       0.32500000       0.32500000       0.07500000 </v>
   <v>       0.37500000       0.32500000       0.07500000 </v>
   <v>       0.42500000       0.32500000       0.07500000 </v>
   <v>       0.47500000       0.32500000       0.07500000 </v>
   <v>       0.07500000       0.37500000       0.07500000 </v>
   <v>       0.12500000       0.37500000       0.07500000 </v>
   <v>       0.17500000       0.37500000       0.07500000 </v>
   <v>       0.22500000       0.37500000       0.07500000 </v>
   <v>       0.27500000       0.37500000       0.07500000 </v>
   <v>       0.32500000       0.37500000       0.07500000 </v>
   <v>       0.37500000       0.37500000       0.07500000 </v>
   <v>       0.42500000       0.37500000       0.07500000 </v>
   <v>       0.47500000       0.37500000       0.07500000 </v>
   <v>       0.07500000       0.42500000       0.07500000 </v>
   <v>       0.12500000       0.42500000       0.07500000 </v>
   <v>       0.17500000       0.42500000       0.07500000 </v>
   <v>       0.22500000       0.42500000       0.07500000 </v>
   <v>       0.27500000       0.42500000       0.07500000 </v>
   <v>       0.32500000       0.42500000       0.07500000 </v>
   <v>       0.37500000       0.42500000       0.07500000 </v>
   <v>       0.42500000       0.42500000       0.07500000 </v>
   <v>       0.47500000       0.42500000       0.07500000 </v>
   <v>       0.07500000       0.47500000       0.07500000 </v>
   <v>       0.12500000       0.47500000       0.07500000 </v>
   <v>       0.17500000       0.47500000       0.07500000 </v>
   <v>       0.22500000       0.47500000       0.07500000 </v>
   <v>       0.27500000       0.47500000       0.07500000 </v>
   <v>       0.32500000       0.47500000       0.07500000 </v>
   <v>       0.37500000       0.47500000       0.07500000 </v>
   <v>       0.42500000       0.47500000       0.07500000 </v>
   <v>       0.47500000       0.47500000       0.07500000 </v>
   <v>       0.12500000       0.02500000       0.12500000 </v>
   <v>       0.17500000       0.02500000       0.12500000 </v>
   <v>       0.22500000       0.02500000       0.12500000 </v>
   <v>       0.27500000       0.02500000       0.12500000 </v>
   <v>       0.32500000       0.02500000       0.12500000 </v>
   <v>       0.37500000       0.02500000       0.12500000 </v>
   <v>       0.42500000       0.02500000       0.12500000 </v>
   <v>       0.47500000       0.02500000       0.12500000 </v>
   <v>       0.12500000       0.07500000       0.12500000 </v>
   <v>       0.17500000       0.07500000       0.12500000 </v>
   <v>       0.22500000       0.07500000       0.12500000 </v>
   <v>       0.27500000       0.07500000       0.12500000 </v>
   <v>       0.32500000       0.07500000       0.12500000 </v>
   <v>       0.37500000       0.07500000       0.12500000 </v>
   <v>       0.42500000       0.07500000       0.12500000 </v>
   <v>       0.47500000       0.07500000       0.12500000 </v>
   <v>       0.12500000       0.12500000       0.12500000 </v>
   <v>       0.17500000       0.12500000       0.12500000 </v>
   <v>       0.22500000       0.12500000       0.12500000 </v>
   <v>       0.27500000       0.12500000       0.12500000 </v>
   <v>       0.32500000       0.12500000       0.12500000 </v>
   <v>       0.37500000       0.12500000       0.12500000 </v>
   <v>       0.42500000       0.12500000       0.12500000 </v>
   <v>       0.47500000       0.12500000       0.12500000 </v>
   <v>       0.12500000       0.17500000       0.12500000 </v>
   <v>       0.17500000       0.17500000       0.12500000 </v>
   <v>       0.22500000       0.17500000       0.12500000 </v>
   <v>       0.27500000       0.17500000       0.12500000 </v>
   <v>       0.32500000       0.17500000       0.12500000 </v>
   <v>       0.37500000       0.17500000       0.12500000 </v>
   <v>       0.42500000       0.17500000       0.12500000 </v>
   <v>       0.47500000       0.17500000       0.12500000 </v>
   <v>       0.12500000       0.22500000       0.12500000 </v>
   <v>       0.17500000       0.22500000       0.12500000 </v>
   <v>       0.22500000       0.22500000       0.12500000 </v>
   <v>       0.27500000       0.22500000       0.12500000 </v>
   <v>       0.32500000       0.22500000       0.12500000 </v>
   <v>       0.37500000       0.22500000       0.12500000 </v>
   <v>       0.42500000       0.22500000       0.12500000 </v>
   <v>       0.47500000       0.22500000       0.12500000 </v>
   <v>       0.12500000       0.27500000       0.12500000 </v>
   <v>       0.17500000       0.27500000       0.12500000 </v>
   <v>       0.22500000       0.27500000       0.12500000 </v>
   <v>       0.27500000       0.27500000       0.12500000 </v>
   <v>       0.32500000       0.27500000       0.12500000 </v>
   <v>       0.37500000       0.27500000       0.12500000 </v>
   <v>       0.42500000       0.27500000       0.12500000 </v>
   <v>       0.47500000       0.27500000       0.12500000 </v>
   <v>       0.12500000       0.32500000       0.12500000 </v>
   <v>       0.17500000       0.32500000       0.12500000 </v>
   <v>       0.22500000       0.32500000       0.12500000 </v>
   <v>       0.27500000       0.32500000       0.12500000 </v>
   <v>       0.32500000       0.32500000       0.12500000 </v>
   <v>       0.37500000       0.32500000       0.12500000 </v>
   <v>       0.42500000       0.32500000       0.12500000 </v>
   <v>       0.47500000       0.32500000       0.12500000 </v>
   <v>       0.12500000       0.37500000       0.12500000 </v>
   <v>       0.17500000       0.37500000       0.12500000 </v>
   <v>       0.22500000       0.37500000       0.12500000 </v>
   <v>       0.27500000       0.37500000       0.12500000 </v>
   <v>       0.32500000       0.37500000       0.12500000 </v>
   <v>       0.37500000       0.37500000       0.12500000 </v>
   <v>       0.42500000       0.37500000       0.12500000 </v>
   <v>       0.47500000       0.37500000       0.12500000 </v>
   <v>       0.12500000       0.42500000       0.12500000 </v>
   <v>       0.17500000       0.42500000       0.12500000 </v>
   <v>       0.22500000       0.42500000       0.12500000 </v>
   <v>       0.27500000       0.42500000       0.12500000 </v>
   <v>       0.32500000       0.42500000       0.12500000 </v>
   <v>       0.37500000       0.42500000       0.12500000 </v>
   <v>       0.42500000       0.42500000       0.12500000 </v>
   <v>       0.47500000       0.42500000       0.12500000 </v>
   <v>       0.12500000       0.47500000       0.12500000 </v>
   <v>       0.17500000       0.47500000       0.12500000 </v>
   <v>       0.22500000       0.47500000       0.12500000 </v>
   <v>       0.27500000       0.47500000       0.12500000 </v>
   <v>       0.32500000       0.47500000       0.12500000 </v>
   <v>       0.37500000       0.47500000       0.12500000 </v>
   <v>       0.42500000       0.47500000       0.12500000 </v>
   <v>       0.47500000       0.47500000       0.12500000 </v>
   <v>       0.17500000       0.02500000       0.17500000 </v>
   <v>       0.22500000       0.02500000       0.17500000 </v>
   <v>       0.27500000       0.02500000       0.17500000 </v>
   <v>       0.32500000       0.02500000       0.17500000 </v>
   <v>       0.37500000       0.02500000       0.17500000 </v>
   <v>       0.42500000       0.02500000       0.17500000 </v>
   <v>       0.47500000       0.02500000       0.17500000 </v>
   <v>       0.17500000       0.07500000       0.17500000 </v>
   <v>       0.22500000       0.07500000       0.17500000 </v>
   <v>       0.27500000       0.07500000       0.17500000 </v>
   <v>       0.32500000       0.07500000       0.17500000 </v>
   <v>       0.37500000       0.07500000       0.17500000 </v>
   <v>       0.42500000       0.07500000       0.17500000 </v>
   <v>       0.47500000       0.07500000       0.17500000 </v>
   <v>       0.17500000       0.12500000       0.17500000 </v>
   <v>       0.22500000       0.12500000       0.17500000 </v>
   <v>       0.27500000       0.12500000       0.17500000 </v>
   <v>       0.32500000       0.12500000       0.17500000 </v>
   <v>       0.37500000       0.12500000       0.17500000 </v>
   <v>       0.42500000       0.12500000       0.17500000 </v>
   <v>       0.47500000       0.12500000       0.17500000 </v>
   <v>       0.17500000       0.17500000       0.17500000 </v>
   <v>       0.22500000       0.17500000       0.17500000 </v>
   <v>       0.27500000       0.17500000       0.17500000 </v>
   <v>       0.32500000       0.17500000       0.17500000 </v>
   <v>       0.37500000       0.17500000       0.17500000 </v>
   <v>       0.42500000       0.17500000       0.17500000 </v>
   <v>       0.47500000       0.17500000       0.17500000 </v>
   <v>       0.17500000       0.22500000       0.17500000 </v>
   <v>       0.22500000       0.22500000       0.17500000 </v>
   <v>       0.27500000       0.22500000       0.17500000 </v>
   <v>       0.32500000       0.22500000       0.17500000 </v>
   <v>       0.37500000       0.22500000       0.17500000 </v>
   <v>       0.42500000       0.22500000       0.17500000 </v>
   <v>       0.47500000       0.22500000       0.17500000 </v>
   <v>       0.17500000       0.27500000       0.17500000 </v>
   <v>       0.22500000       0.27500000       0.17500000 </v>
   <v>       0.27500000       0.27500000       0.17500000 </v>
   <v>       0.32500000       0.27500000       0.17500000 </v>
   <v>       0.37500000       0.27500000       0.17500000 </v>
   <v>       0.42500000       0.27500000       0.17500000 </v>
   <v>       0.47500000       0.27500000       0.17500000 </v>
   <v>       0.17500000       0.32500000       0.17500000 </v>
   <v>       0.22500000       0.32500000       0.17500000 </v>
   <v>       0.27500000       0.32500000       0.17500000 </v>
   <v>       0.32500000       0.32500000       0.17500000 </v>
   <v>       0.37500000       0.32500000       0.17500000 </v>
   <v>       0.42500000       0.32500000       0.17500000 </v>
   <v>       0.47500000       0.32500000       0.17500000 </v>
   <v>       0.17500000       0.37500000       0.17500000 </v>
   <v>       0.22500000       0.37500000       0.17500000 </v>
   <v>       0.27500000       0.37500000       0.17500000 </v>
   <v>       0.32500000       0.37500000       0.17500000 </v>
   <v>       0.37500000       0.37500000       0.17500000 </v>
   <v>       0.42500000       0.37500000       0.17500000 </v>
   <v>       0.47500000       0.37500000       0.17500000 </v>
   <v>       0.17500000       0.42500000       0.17500000 </v>
   <v>       0.22500000       0.42500000       0.17500000 </v>
   <v>       0.27500000       0.42500000       0.17500000 </v>
   <v>       0.32500000       0.42500000       0.17500000 </v>
   <v>       0.37500000       0.42500000       0.17500000 </v>
   <v>       0.42500000       0.42500000       0.17500000 </v>
   <v>       0.47500000       0.42500000       0.17500000 </v>
   <v>       0.17500000       0.47500000       0.17500000 </v>
   <v>       0.22500000       0.47500000       0.17500000 </v>
   <v>       0.27500000       0.47500000       0.17500000 </v>
   <v>       0.32500000       0.47500000       0.17500000 </v>
   <v>       0.37500000       0.47500000       0.17500000 </v>
   <v>       0.42500000       0.47500000       0.17500000 </v>
   <v>       0.47500000       0.47500000       0.17500000 </v>
   <v>       0.22500000       0.02500000       0.22500000 </v>
   <v>       0.27500000       0.02500000       0.22500000 </v>
   <v>       0.32500000       0.02500000       0.22500000 </v>
   <v>       0.37500000       0.02500000       0.22500000 </v>
   <v>       0.42500000       0.02500000       0.22500000 </v>
   <v>       0.47500000       0.02500000       0.22500000 </v>
   <v>       0.22500000       0.07500000       0.22500000 </v>
   <v>       0.27500000       0.07500000       0.22500000 </v>
   <v>       0.32500000       0.07500000       0.22500000 </v>
   <v>       0.37500000       0.07500000       0.22500000 </v>
   <v>       0.42500000       0.07500000       0.22500000 </v>
   <v>       0.47500000       0.07500000       0.22500000 </v>
   <v>       0.22500000       0.12500000       0.22500000 </v>
   <v>       0.27500000       0.12500000       0.22500000 </v>
   <v>       0.32500000       0.12500000       0.22500000 </v>
   <v>       0.37500000       0.12500000       0.22500000 </v>
   <v>       0.42500000       0.12500000       0.22500000 </v>
   <v>       0.47500000       0.12500000       0.22500000 </v>
   <v>       0.22500000       0.17500000       0.22500000 </v>
   <v>       0.27500000       0.17500000       0.22500000 </v>
   <v>       0.32500000       0.17500000       0.22500000 </v>
   <v>       0.37500000       0.17500000       0.22500000 </v>
   <v>       0.42500000       0.17500000       0.22500000 </v>
   <v>       0.47500000       0.17500000       0.22500000 </v>
   <v>       0.22500000       0.22500000       0.22500000 </v>
   <v>       0.27500000       0.22500000       0.22500000 </v>
   <v>       0.32500000       0.22500000       0.22500000 </v>
   <v>       0.37500000       0.22500000       0.22500000 </v>
   <v>       0.42500000       0.22500000       0.22500000 </v>
   <v>       0.47500000       0.22500000       0.22500000 </v>
   <v>       0.22500000       0.27500000       0.22500000 </v>
   <v>       0.27500000       0.27500000       0.22500000 </v>
   <v>       0.32500000       0.27500000       0.22500000 </v>
   <v>       0.37500000       0.27500000       0.22500000 </v>
   <v>       0.42500000       0.27500000       0.22500000 </v>
   <v>       0.47500000       0.27500000       0.22500000 </v>
   <v>       0.22500000       0.32500000       0.22500000 </v>
   <v>       0.27500000       0.32500000       0.22500000 </v>
   <v>       0.32500000       0.32500000       0.22500000 </v>
   <v>       0.37500000       0.32500000       0.22500000 </v>
   <v>       0.42500000       0.32500000       0.22500000 </v>
   <v>       0.47500000       0.32500000       0.22500000 </v>
   <v>       0.22500000       0.37500000       0.22500000 </v>
   <v>       0.27500000       0.37500000       0.22500000 </v>
   <v>       0.32500000       0.37500000       0.22500000 </v>
   <v>       0.37500000       0.37500000       0.22500000 </v>
   <v>       0.42500000       0.37500000       0.22500000 </v>
   <v>       0.47500000       0.37500000       0.22500000 </v>
   <v>       0.22500000       0.42500000       0.22500000 </v>
   <v>       0.27500000       0.42500000       0.22500000 </v>
   <v>       0.32500000       0.42500000       0.22500000 </v>
   <v>       0.37500000       0.42500000       0.22500000 </v>
   <v>       0.42500000       0.42500000       0.22500000 </v>
   <v>       0.47500000       0.42500000       0.22500000 </v>
   <v>       0.22500000       0.47500000       0.22500000 </v>
   <v>       0.27500000       0.47500000       0.22500000 </v>
   <v>       0.32500000       0.47500000       0.22500000 </v>
   <v>       0.37500000       0.47500000       0.22500000 </v>
   <v>       0.42500000       0.47500000       0.22500000 </v>
   <v>       0.47500000       0.47500000       0.22500000 </v>
   <v>       0.27500000       0.02500000       0.27500000 </v>
   <v>       0.32500000       0.02500000       0.27500000 </v>
   <v>       0.37500000       0.02500000       0.27500000 </v>
   <v>       0.42500000       0.02500000       0.27500000 </v>
   <v>       0.47500000       0.02500000       0.27500000 </v>
   <v>       0.27500000       0.07500000       0.27500000 </v>
   <v>       0.32500000       0.07500000       0.27500000 </v>
   <v>       0.37500000       0.07500000       0.27500000 </v>
   <v>       0.42500000       0.07500000       0.27500000 </v>
   <v>       0.47500000       0.07500000       0.27500000 </v>
   <v>       0.27500000       0.12500000       0.27500000 </v>
   <v>       0.32500000       0.12500000       0.27500000 </v>
   <v>       0.37500000       0.12500000       0.27500000 </v>
   <v>       0.42500000       0.12500000       0.27500000 </v>
   <v>       0.47500000       0.12500000       0.27500000 </v>
   <v>       0.27500000       0.17500000       0.27500000 </v>
   <v>       0.32500000       0.17500000       0.27500000 </v>
   <v>       0.37500000       0.17500000       0.27500000 </v>
   <v>       0.42500000       0.17500000       0.27500000 </v>
   <v>       0.47500000       0.17500000       0.27500000 </v>
   <v>       0.27500000       0.22500000       0.27500000 </v>
   <v>       0.32500000       0.22500000       0.27500000 </v>
   <v>       0.37500000       0.22500000       0.27500000 </v>
   <v>       0.42500000       0.22500000       0.27500000 </v>
   <v>       0.47500000       0.22500000       0.27500000 </v>
   <v>       0.27500000       0.27500000       0.27500000 </v>
   <v>       0.32500000       0.27500000       0.27500000 </v>
   <v>       0.37500000       0.27500000       0.27500000 </v>
   <v>       0.42500000       0.27500000       0.27500000 </v>
   <v>       0.47500000       0.27500000       0.27500000 </v>
   <v>       0.27500000       0.32500000       0.27500000 </v>
   <v>       0.32500000       0.32500000       0.27500000 </v>
   <v>       0.37500000       0.32500000       0.27500000 </v>
   <v>       0.42500000       0.32500000       0.27500000 </v>
   <v>       0.47500000       0.32500000       0.27500000 </v>
   <v>       0.27500000       0.37500000       0.27500000 </v>
   <v>       0.32500000       0.37500000       0.27500000 </v>
   <v>       0.37500000       0.37500000       0.27500000 </v>
   <v>       0.42500000       0.37500000       0.27500000 </v>
   <v>       0.47500000       0.37500000       0.27500000 </v>
   <v>       0.27500000       0.42500000       0.27500000 </v>
   <v>       0.32500000       0.42500000       0.27500000 </v>
   <v>       0.37500000       0.42500000       0.27500000 </v>
   <v>       0.42500000       0.42500000       0.27500000 </v>
   <v>       0.47500000       0.42500000       0.27500000 </v>
   <v>       0.27500000       0.47500000       0.27500000 </v>
   <v>       0.32500000       0.47500000       0.27500000 </v>
   <v>       0.37500000       0.47500000       0.27500000 </v>
   <v>       0.42500000       0.47500000       0.27500000 </v>
   <v>       0.47500000       0.47500000       0.27500000 </v>
   <v>       0.32500000       0.02500000       0.32500000 </v>
   <v>       0.37500000       0.02500000       0.32500000 </v>
   <v>       0.42500000       0.02500000       0.32500000 </v>
   <v>       0.47500000       0.02500000       0.32500000 </v>
   <v>       0.32500000       0.07500000       0.32500000 </v>
   <v>       0.37500000       0.07500000       0.32500000 </v>
   <v>       0.42500000       0.07500000       0.32500000 </v>
   <v>       0.47500000       0.07500000       0.32500000 </v>
   <v>       0.32500000       0.12500000       0.32500000 </v>
   <v>       0.37500000       0.12500000       0.32500000 </v>
   <v>       0.42500000       0.12500000       0.32500000 </v>
   <v>       0.47500000       0.12500000       0.32500000 </v>
   <v>       0.32500000       0.17500000       0.32500000 </v>
   <v>       0.37500000       0.17500000       0.32500000 </v>
   <v>       0.42500000       0.17500000       0.32500000 </v>
   <v>       0.47500000       0.17500000       0.32500000 </v>
   <v>       0.32500000       0.22500000       0.32500000 </v>
   <v>       0.37500000       0.22500000       0.32500000 </v>
   <v>       0.42500000       0.22500000       0.32500000 </v>
   <v>       0.47500000       0.22500000       0.32500000 </v>
   <v>       0.32500000       0.27500000       0.32500000 </v>
   <v>       0.37500000       0.27500000       0.32500000 </v>
   <v>       0.42500000       0.27500000       0.32500000 </v>
   <v>       0.47500000       0.27500000       0.32500000 </v>
   <v>       0.32500000       0.32500000       0.32500000 </v>
   <v>       0.37500000       0.32500000       0.32500000 </v>
   <v>       0.42500000       0.32500000       0.32500000 </v>
   <v>       0.47500000       0.32500000       0.32500000 </v>
   <v>       0.32500000       0.37500000       0.32500000 </v>
   <v>       0.37500000       0.37500000       0.32500000 </v>
   <v>       0.42500000       0.37500000       0.32500000 </v>
   <v>       0.47500000       0.37500000       0.32500000 </v>
   <v>       0.32500000       0.42500000       0.32500000 </v>
   <v>       0.37500000       0.42500000       0.32500000 </v>
   <v>       0.42500000       0.42500000       0.32500000 </v>
   <v>       0.47500000       0.42500000       0.32500000 </v>
   <v>       0.32500000       0.47500000       0.32500000 </v>
   <v>       0.37500000       0.47500000       0.32500000 </v>
   <v>       0.42500000       0.47500000       0.32500000 </v>
   <v>       0.47500000       0.47500000       0.32500000 </v>
   <v>       0.37500000       0.02500000       0.37500000 </v>
   <v>       0.42500000       0.02500000       0.37500000 </v>
   <v>       0.47500000       0.02500000       0.37500000 </v>
   <v>       0.37500000       0.07500000       0.37500000 </v>
   <v>       0.42500000       0.07500000       0.37500000 </v>
   <v>       0.47500000       0.07500000       0.37500000 </v>
   <v>       0.37500000       0.12500000       0.37500000 </v>
   <v>       0.42500000       0.12500000       0.37500000 </v>
   <v>       0.47500000       0.12500000       0.37500000 </v>
   <v>       0.37500000       0.17500000       0.37500000 </v>
   <v>       0.42500000       0.17500000       0.37500000 </v>
   <v>       0.47500000       0.17500000       0.37500000 </v>
   <v>       0.37500000       0.22500000       0.37500000 </v>
   <v>       0.42500000       0.22500000       0.37500000 </v>
   <v>       0.47500000       0.22500000       0.37500000 </v>
   <v>       0.37500000       0.27500000       0.37500000 </v>
   <v>       0.42500000       0.27500000       0.37500000 </v>
   <v>       0.47500000       0.27500000       0.37500000 </v>
   <v>       0.37500000       0.32500000       0.37500000 </v>
   <v>       0.42500000       0.32500000       0.37500000 </v>
   <v>       0.47500000       0.32500000       0.37500000 </v>
   <v>       0.37500000       0.37500000       0.37500000 </v>
   <v>       0.42500000       0.37500000       0.37500000 </v>
   <v>       0.47500000       0.37500000       0.37500000 </v>
   <v>       0.37500000       0.42500000       0.37500000 </v>
   <v>       0.42500000       0.42500000       0.37500000 </v>
   <v>       0.47500000       0.42500000       0.37500000 </v>
   <v>       0.37500000       0.47500000       0.37500000 </v>
   <v>       0.42500000       0.47500000       0.37500000 </v>
   <v>       0.47500000       0.47500000       0.37500000 </v>
   <v>       0.42500000       0.02500000       0.42500000 </v>
   <v>       0.47500000       0.02500000       0.42500000 </v>
   <v>       0.42500000       0.07500000       0.42500000 </v>
   <v>       0.47500000       0.07500000       0.42500000 </v>
   <v>       0.42500000       0.12500000       0.42500000 </v>
   <v>       0.47500000       0.12500000       0.42500000 </v>
   <v>       0.42500000       0.17500000       0.42500000 </v>
   <v>       0.47500000       0.17500000       0.42500000 </v>
   <v>       0.42500000       0.22500000       0.42500000 </v>
   <v>       0.47500000       0.22500000       0.42500000 </v>
   <v>       0.42500000       0.27500000       0.42500000 </v>
   <v>       0.47500000       0.27500000       0.42500000 </v>
   <v>       0.42500000       0.32500000       0.42500000 </v>
   <v>       0.47500000       0.32500000       0.42500000 </v>
   <v>       0.42500000       0.37500000       0.42500000 </v>
   <v>       0.47500000       0.37500000       0.42500000 </v>
   <v>       0.42500000       0.42500000       0.42500000 </v>
   <v>       0.47500000       0.42500000       0.42500000 </v>
   <v>       0.42500000       0.47500000       0.42500000 </v>
   <v>       0.47500000       0.47500000       0.42500000 </v>
   <v>       0.47500000       0.02500000       0.47500000 </v>
   <v>       0.47500000       0.07500000       0.47500000 </v>
   <v>       0.47500000       0.12500000       0.47500000 </v>
   <v>       0.47500000       0.17500000       0.47500000 </v>
   <v>       0.47500000       0.22500000       0.47500000 </v>
   <v>       0.47500000       0.27500000       0.47500000 </v>
   <v>       0.47500000       0.32500000       0.47500000 </v>
   <v>       0.47500000       0.37500000       0.47500000 </v>
   <v>       0.47500000       0.42500000       0.47500000 </v>
   <v>       0.47500000       0.47500000       0.47500000 </v>
  </varray>
  <varray name="weights" >
   <v>       0.00100000 </v>
   <v>       0.00200000 </v>
   <v>       0.00200000 </v>
   <v>       0.00200000 </v>
   <v>       0.00200000 </v>
   <v>       0.00200000 </v>
   <v>       0.00200000 </v>
   <v>       0.00200000 </v>
   <v>       0.00200000 </v>
   <v>       0.00200000 </v>
   <v>       0.00100000 </v>
   <v>       0.00200000 </v>
   <v>       0.00200000 </v>
   <v>       0.00200000 </v>
   <v>       0.00200000 </v>
   <v>       0.00200000 </v>
   <v>       0.00200000 </v>
   <v>       0.00200000 </v>
   <v>       0.00200000 </v>
   <v>       0.00200000 </v>
   <v>       0.00100000 </v>
   <v>       0.00200000 </v>
   <v>       0.00200000 </v>
   <v>       0.00200000 </v>
   <v>       0.00200000 </v>
   <v>       0.00200000 </v>
   <v>       0.00200000 </v>
   <v>       0.00200000 </v>
   <v>       0.00200000 </v>
   <v>       0.00200000 </v>
   <v>       0.00100000 </v>
   <v>       0.00200000 </v>
   <v>       0.00200000 </v>
   <v>       0.00200000 </v>
   <v>       0.00200000 </v>
   <v>       0.00200000 </v>
   <v>       0.00200000 </v>
   <v>       0.00200000 </v>
   <v>       0.00200000 </v>
   <v>       0.00200000 </v>
   <v>       0.00100000 </v>
   <v>       0.00200000 </v>
   <v>       0.00200000 </v>
   <v>       0.00200000 </v>
   <v>       0.00200000 </v>
   <v>       0.00200000 </v>
   <v>       0.00200000 </v>
   <v>       0.00200000 </v>
   <v>       0.00200000 </v>
   <v>       0.00200000 </v>
   <v>       0.00100000 </v>
   <v>       0.00200000 </v>
   <v>       0.00200000 </v>
   <v>       0.00200000 </v>
   <v>       0.00200000 </v>
   <v>       0.00200000 </v>
   <v>       0.00200000 </v>
   <v>       0.00200000 </v>
   <v>       0.00200000 </v>
   <v>       0.00200000 </v>
   <v>       0.00100000 </v>
   <v>       0.00200000 </v>
   <v>       0.00200000 </v>
   <v>       0.00200000 </v>
   <v>       0.00200000 </v>
   <v>       0.00200000 </v>
   <v>       0.00200000 </v>
   <v>       0.00200000 </v>
   <v>       0.00200000 </v>
   <v>       0.00200000 </v>
   <v>       0.00100000 </v>
   <v>       0.00200000 </v>
   <v>       0.00200000 </v>
   <v>       0.00200000 </v>
   <v>       0.00200000 </v>
   <v>       0.00200000 </v>
   <v>       0.00200000 </v>
   <v>       0.00200000 </v>
   <v>       0.00200000 </v>
   <v>       0.00200000 </v>
   <v>       0.00100000 </v>
   <v>       0.00200000 </v>
   <v>       0.00200000 </v>
   <v>       0.00200000 </v>
   <v>       0.00200000 </v>
   <v>       0.00200000 </v>
   <v>       0.00200000 </v>
   <v>       0.00200000 </v>
   <v>       0.00200000 </v>
   <v>       0.00200000 </v>
   <v>       0.00100000 </v>
   <v>       0.00200000 </v>
   <v>       0.00200000 </v>
   <v>       0.00200000 </v>
   <v>       0.00200000 </v>
   <v>       0.00200000 </v>
   <v>       0.00200000 </v>
   <v>       0.00200000 </v>
   <v>       0.00200000 </v>
   <v>       0.00200000 </v>
   <v>       0.00100000 </v>
   <v>       0.00200000 </v>
   <v>       0.00200000 </v>
   <v>       0.00200000 </v>
   <v>       0.00200000 </v>
   <v>       0.00200000 </v>
   <v>       0.00200000 </v>
   <v>       0.00200000 </v>
   <v>       0.00200000 </v>
   <v>       0.00100000 </v>
   <v>       0.00200000 </v>
   <v>       0.00200000 </v>
   <v>       0.00200000 </v>
   <v>       0.00200000 </v>
   <v>       0.00200000 </v>
   <v>       0.00200000 </v>
   <v>       0.00200000 </v>
   <v>       0.00200000 </v>
   <v>       0.00100000 </v>
   <v>       0.00200000 </v>
   <v>       0.00200000 </v>
   <v>       0.00200000 </v>
   <v>       0.00200000 </v>
   <v>       0.00200000 </v>
   <v>       0.00200000 </v>
   <v>       0.00200000 </v>
   <v>       0.00200000 </v>
   <v>       0.00100000 </v>
   <v>       0.00200000 </v>
   <v>       0.00200000 </v>
   <v>       0.00200000 </v>
   <v>       0.00200000 </v>
   <v>       0.00200000 </v>
   <v>       0.00200000 </v>
   <v>       0.00200000 </v>
   <v>       0.00200000 </v>
   <v>       0.00100000 </v>
   <v>       0.00200000 </v>
   <v>       0.00200000 </v>
   <v>       0.00200000 </v>
   <v>       0.00200000 </v>
   <v>       0.00200000 </v>
   <v>       0.00200000 </v>
   <v>       0.00200000 </v>
   <v>       0.00200000 </v>
   <v>       0.00100000 </v>
   <v>       0.00200000 </v>
   <v>       0.00200000 </v>
   <v>       0.00200000 </v>
   <v>       0.00200000 </v>
   <v>       0.00200000 </v>
   <v>       0.00200000 </v>
   <v>       0.00200000 </v>
   <v>       0.00200000 </v>
   <v>       0.00100000 </v>
   <v>       0.00200000 </v>
   <v>       0.00200000 </v>
   <v>       0.00200000 </v>
   <v>       0.00200000 </v>
   <v>       0.00200000 </v>
   <v>       0.00200000 </v>
   <v>       0.00200000 </v>
   <v>       0.00200000 </v>
   <v>       0.00100000 </v>
   <v>       0.00200000 </v>
   <v>       0.00200000 </v>
   <v>       0.00200000 </v>
   <v>       0.00200000 </v>
   <v>       0.00200000 </v>
   <v>       0.00200000 </v>
   <v>       0.00200000 </v>
   <v>       0.00200000 </v>
   <v>       0.00100000 </v>
   <v>       0.00200000 </v>
   <v>       0.00200000 </v>
   <v>       0.00200000 </v>
   <v>       0.00200000 </v>
   <v>       0.00200000 </v>
   <v>       0.00200000 </v>
   <v>       0.00200000 </v>
   <v>       0.00200000 </v>
   <v>       0.00100000 </v>
   <v>       0.00200000 </v>
   <v>       0.00200000 </v>
   <v>       0.00200000 </v>
   <v>       0.00200000 </v>
   <v>       0.00200000 </v>
   <v>       0.00200000 </v>
   <v>       0.00200000 </v>
   <v>       0.00200000 </v>
   <v>       0.00100000 </v>
   <v>       0.00200000 </v>
   <v>       0.00200000 </v>
   <v>       0.00200000 </v>
   <v>       0.00200000 </v>
   <v>       0.00200000 </v>
   <v>       0.00200000 </v>
   <v>       0.00200000 </v>
   <v>       0.00100000 </v>
   <v>       0.00200000 </v>
   <v>       0.00200000 </v>
   <v>       0.00200000 </v>
   <v>       0.00200000 </v>
   <v>       0.00200000 </v>
   <v>       0.00200000 </v>
   <v>       0.00200000 </v>
   <v>       0.00100000 </v>
   <v>       0.00200000 </v>
   <v>       0.00200000 </v>
   <v>       0.00200000 </v>
   <v>       0.00200000 </v>
   <v>       0.00200000 </v>
   <v>       0.00200000 </v>
   <v>       0.00200000 </v>
   <v>       0.00100000 </v>
   <v>       0.00200000 </v>
   <v>       0.00200000 </v>
   <v>       0.00200000 </v>
   <v>       0.00200000 </v>
   <v>       0.00200000 </v>
   <v>       0.00200000 </v>
   <v>       0.00200000 </v>
   <v>       0.00100000 </v>
   <v>       0.00200000 </v>
   <v>       0.00200000 </v>
   <v>       0.00200000 </v>
   <v>       0.00200000 </v>
   <v>       0.00200000 </v>
   <v>       0.00200000 </v>
   <v>       0.00200000 </v>
   <v>       0.00100000 </v>
   <v>       0.00200000 </v>
   <v>       0.00200000 </v>
   <v>       0.00200000 </v>
   <v>       0.00200000 </v>
   <v>       0.00200000 </v>
   <v>       0.00200000 </v>
   <v>       0.00200000 </v>
   <v>       0.00100000 </v>
   <v>       0.00200000 </v>
   <v>       0.00200000 </v>
   <v>       0.00200000 </v>
   <v>       0.00200000 </v>
   <v>       0.00200000 </v>
   <v>       0.00200000 </v>
   <v>       0.00200000 </v>
   <v>       0.00100000 </v>
   <v>       0.00200000 </v>
   <v>       0.00200000 </v>
   <v>       0.00200000 </v>
   <v>       0.00200000 </v>
   <v>       0.00200000 </v>
   <v>       0.00200000 </v>
   <v>       0.00200000 </v>
   <v>       0.00100000 </v>
   <v>       0.00200000 </v>
   <v>       0.00200000 </v>
   <v>       0.00200000 </v>
   <v>       0.00200000 </v>
   <v>       0.00200000 </v>
   <v>       0.00200000 </v>
   <v>       0.00200000 </v>
   <v>       0.00100000 </v>
   <v>       0.00200000 </v>
   <v>       0.00200000 </v>
   <v>       0.00200000 </v>
   <v>       0.00200000 </v>
   <v>       0.00200000 </v>
   <v>       0.00200000 </v>
   <v>       0.00200000 </v>
   <v>       0.00100000 </v>
   <v>       0.00200000 </v>
   <v>       0.00200000 </v>
   <v>       0.00200000 </v>
   <v>       0.00200000 </v>
   <v>       0.00200000 </v>
   <v>       0.00200000 </v>
   <v>       0.00100000 </v>
   <v>       0.00200000 </v>
   <v>       0.00200000 </v>
   <v>       0.00200000 </v>
   <v>       0.00200000 </v>
   <v>       0.00200000 </v>
   <v>       0.00200000 </v>
   <v>       0.00100000 </v>
   <v>       0.00200000 </v>
   <v>       0.00200000 </v>
   <v>       0.00200000 </v>
   <v>       0.00200000 </v>
   <v>       0.00200000 </v>
   <v>       0.00200000 </v>
   <v>       0.00100000 </v>
   <v>       0.00200000 </v>
   <v>       0.00200000 </v>
   <v>       0.00200000 </v>
   <v>       0.00200000 </v>
   <v>       0.00200000 </v>
   <v>       0.00200000 </v>
   <v>       0.00100000 </v>
   <v>       0.00200000 </v>
   <v>       0.00200000 </v>
   <v>       0.00200000 </v>
   <v>       0.00200000 </v>
   <v>       0.00200000 </v>
   <v>       0.00200000 </v>
   <v>       0.00100000 </v>
   <v>       0.00200000 </v>
   <v>       0.00200000 </v>
   <v>       0.00200000 </v>
   <v>       0.00200000 </v>
   <v>       0.00200000 </v>
   <v>       0.00200000 </v>
   <v>       0.00100000 </v>
   <v>       0.00200000 </v>
   <v>       0.00200000 </v>
   <v>       0.00200000 </v>
   <v>       0.00200000 </v>
   <v>       0.00200000 </v>
   <v>       0.00200000 </v>
   <v>       0.00100000 </v>
   <v>       0.00200000 </v>
   <v>       0.00200000 </v>
   <v>       0.00200000 </v>
   <v>       0.00200000 </v>
   <v>       0.00200000 </v>
   <v>       0.00200000 </v>
   <v>       0.00100000 </v>
   <v>       0.00200000 </v>
   <v>       0.00200000 </v>
   <v>       0.00200000 </v>
   <v>       0.00200000 </v>
   <v>       0.00200000 </v>
   <v>       0.00200000 </v>
   <v>       0.00100000 </v>
   <v>       0.00200000 </v>
   <v>       0.00200000 </v>
   <v>       0.00200000 </v>
   <v>       0.00200000 </v>
   <v>       0.00200000 </v>
   <v>       0.00200000 </v>
   <v>       0.00100000 </v>
   <v>       0.00200000 </v>
   <v>       0.00200000 </v>
   <v>       0.00200000 </v>
   <v>       0.00200000 </v>
   <v>       0.00200000 </v>
   <v>       0.00100000 </v>
   <v>       0.00200000 </v>
   <v>       0.00200000 </v>
   <v>       0.00200000 </v>
   <v>       0.00200000 </v>
   <v>       0.00200000 </v>
   <v>       0.00100000 </v>
   <v>       0.00200000 </v>
   <v>       0.00200000 </v>
   <v>       0.00200000 </v>
   <v>       0.00200000 </v>
   <v>       0.00200000 </v>
   <v>       0.00100000 </v>
   <v>       0.00200000 </v>
   <v>       0.00200000 </v>
   <v>       0.00200000 </v>
   <v>       0.00200000 </v>
   <v>       0.00200000 </v>
   <v>       0.00100000 </v>
   <v>       0.00200000 </v>
   <v>       0.00200000 </v>
   <v>       0.00200000 </v>
   <v>       0.00200000 </v>
   <v>       0.00200000 </v>
   <v>       0.00100000 </v>
   <v>       0.00200000 </v>
   <v>       0.00200000 </v>
   <v>       0.00200000 </v>
   <v>       0.00200000 </v>
   <v>       0.00200000 </v>
   <v>       0.00100000 </v>
   <v>       0.00200000 </v>
   <v>       0.00200000 </v>
   <v>       0.00200000 </v>
   <v>       0.00200000 </v>
   <v>       0.00200000 </v>
   <v>       0.00100000 </v>
   <v>       0.00200000 </v>
   <v>       0.00200000 </v>
   <v>       0.00200000 </v>
   <v>       0.00200000 </v>
   <v>       0.00200000 </v>
   <v>       0.00100000 </v>
   <v>       0.00200000 </v>
   <v>       0.00200000 </v>
   <v>       0.00200000 </v>
   <v>       0.00200000 </v>
   <v>       0.00200000 </v>
   <v>       0.00100000 </v>
   <v>       0.00200000 </v>
   <v>       0.00200000 </v>
   <v>       0.00200000 </v>
   <v>       0.00200000 </v>
   <v>       0.00200000 </v>
   <v>       0.00100000 </v>
   <v>       0.00200000 </v>
   <v>       0.00200000 </v>
   <v>       0.00200000 </v>
   <v>       0.00200000 </v>
   <v>       0.00100000 </v>
   <v>       0.00200000 </v>
   <v>       0.00200000 </v>
   <v>       0.00200000 </v>
   <v>       0.00200000 </v>
   <v>       0.00100000 </v>
   <v>       0.00200000 </v>
   <v>       0.00200000 </v>
   <v>       0.00200000 </v>
   <v>       0.00200000 </v>
   <v>       0.00100000 </v>
   <v>       0.00200000 </v>
   <v>       0.00200000 </v>
   <v>       0.00200000 </v>
   <v>       0.00200000 </v>
   <v>       0.00100000 </v>
   <v>       0.00200000 </v>
   <v>       0.00200000 </v>
   <v>       0.00200000 </v>
   <v>       0.00200000 </v>
   <v>       0.00100000 </v>
   <v>       0.00200000 </v>
   <v>       0.00200000 </v>
   <v>       0.00200000 </v>
   <v>       0.00200000 </v>
   <v>       0.00100000 </v>
   <v>       0.00200000 </v>
   <v>       0.00200000 </v>
   <v>       0.00200000 </v>
   <v>       0.00200000 </v>
   <v>       0.00100000 </v>
   <v>       0.00200000 </v>
   <v>       0.00200000 </v>
   <v>       0.00200000 </v>
   <v>       0.00200000 </v>
   <v>       0.00100000 </v>
   <v>       0.00200000 </v>
   <v>       0.00200000 </v>
   <v>       0.00200000 </v>
   <v>       0.00200000 </v>
   <v>       0.00100000 </v>
   <v>       0.00200000 </v>
   <v>       0.00200000 </v>
   <v>       0.00200000 </v>
   <v>       0.00200000 </v>
   <v>       0.00100000 </v>
   <v>       0.00200000 </v>
   <v>       0.00200000 </v>
   <v>       0.00200000 </v>
   <v>       0.00100000 </v>
   <v>       0.00200000 </v>
   <v>       0.00200000 </v>
   <v>       0.00200000 </v>
   <v>       0.00100000 </v>
   <v>       0.00200000 </v>
   <v>       0.00200000 </v>
   <v>       0.00200000 </v>
   <v>       0.00100000 </v>
   <v>       0.00200000 </v>
   <v>       0.00200000 </v>
   <v>       0.00200000 </v>
   <v>       0.00100000 </v>
   <v>       0.00200000 </v>
   <v>       0.00200000 </v>
   <v>       0.00200000 </v>
   <v>       0.00100000 </v>
   <v>       0.00200000 </v>
   <v>       0.00200000 </v>
   <v>       0.00200000 </v>
   <v>       0.00100000 </v>
   <v>       0.00200000 </v>
   <v>       0.00200000 </v>
   <v>       0.00200000 </v>
   <v>       0.00100000 </v>
   <v>       0.00200000 </v>
   <v>       0.00200000 </v>
   <v>       0.00200000 </v>
   <v>       0.00100000 </v>
   <v>       0.00200000 </v>
   <v>       0.00200000 </v>
   <v>       0.00200000 </v>
   <v>       0.00100000 </v>
   <v>       0.00200000 </v>
   <v>       0.00200000 </v>
   <v>       0.00200000 </v>
   <v>       0.00100000 </v>
   <v>       0.00200000 </v>
   <v>       0.00200000 </v>
   <v>       0.00100000 </v>
   <v>       0.00200000 </v>
   <v>       0.00200000 </v>
   <v>       0.00100000 </v>
   <v>       0.00200000 </v>
   <v>       0.00200000 </v>
   <v>       0.00100000 </v>
   <v>       0.00200000 </v>
   <v>       0.00200000 </v>
   <v>       0.00100000 </v>
   <v>       0.00200000 </v>
   <v>       0.00200000 </v>
   <v>       0.00100000 </v>
   <v>       0.00200000 </v>
   <v>       0.00200000 </v>
   <v>       0.00100000 </v>
   <v>       0.00200000 </v>
   <v>       0.00200000 </v>
   <v>       0.00100000 </v>
   <v>       0.00200000 </v>
   <v>       0.00200000 </v>
   <v>       0.00100000 </v>
   <v>       0.00200000 </v>
   <v>       0.00200000 </v>
   <v>       0.00100000 </v>
   <v>       0.00200000 </v>
   <v>       0.00200000 </v>
   <v>       0.00100000 </v>
   <v>       0.00200000 </v>
   <v>       0.00100000 </v>
   <v>       0.00200000 </v>
   <v>       0.00100000 </v>
   <v>       0.00200000 </v>
   <v>       0.00100000 </v>
   <v>       0.00200000 </v>
   <v>       0.00100000 </v>
   <v>       0.00200000 </v>
   <v>       0.00100000 </v>
   <v>       0.00200000 </v>
   <v>       0.00100000 </v>
   <v>       0.00200000 </v>
   <v>       0.00100000 </v>
   <v>       0.00200000 </v>
   <v>       0.00100000 </v>
   <v>       0.00200000 </v>
   <v>       0.00100000 </v>
   <v>       0.00200000 </v>
   <v>       0.00100000 </v>
   <v>       0.00100000 </v>
   <v>       0.00100000 </v>
   <v>       0.00100000 </v>
   <v>       0.00100000 </v>
   <v>       0.00100000 </v>
   <v>       0.00100000 </v>
   <v>       0.00100000 </v>
   <v>       0.00100000 </v>
   <v>       0.00100000 </v>
  </varray>
 </kpoints>
 <parameters>
  <separator name="general" >
   <i type="string" name="SYSTEM">Al fcc relaxation</i>
   <i type="logical" name="LCOMPAT"> F  </i>
  </separator>
  <separator name="electronic" >
   <i type="string" name="PREC">accura</i>
   <i name="ENMAX">    400.00000000</i>
   <i name="ENAUG">    291.05200000</i>
   <i name="EDIFF">      0.00000100</i>
   <i type="int" name="IALGO">    68</i>
   <i type="int" name="IWAVPR">    11</i>
   <i type="int" name="NBANDS">    14</i>
   <i type="int" name="NBANDSLOW">    -1</i>
   <i type="int" name="NBANDSHIGH">    -1</i>
   <i name="NELECT">     12.00000000</i>
   <i type="int" name="TURBO">     0</i>
   <i type="int" name="IRESTART">     0</i>
   <i type="int" name="NREBOOT">     0</i>
   <i type="int" name="NMIN">     0</i>
   <i name="EREF">      0.00000000</i>
   <separator name="electronic smearing" >
    <i type="int" name="ISMEAR">     1</i>
    <i name="SIGMA">      0.20000000</i>
    <i name="KSPACING">      0.08000000</i>
    <i type="logical" name="KGAMMA"> T  </i>
    <i type="logical" name="KBLOWUP"> T  </i>
   </separator>
   <separator name="electronic projectors" >
    <i type="logical" name="LREAL"> T  </i>
    <v name="ROPT">     -0.00025000</v>
    <i type="int" name="LMAXPAW">  -100</i>
    <i type="int" name="LMAXMIX">     2</i>
    <i type="logical" name="NLSPLINE"> F  </i>
   </separator>
   <separator name="electronic startup" >
    <i type="int" name="ISTART">     0</i>
    <i type="int" name="ICHARG">     2</i>
    <i type="int" name="INIWAV">     1</i>
   </separator>
   <separator name="electronic spin" >
    <i type="int" name="ISPIN">     1</i>
    <i type="logical" name="LNONCOLLINEAR"> F  </i>
    <v name="MAGMOM">      1.00000000      1.00000000      1.00000000      1.00000000</v>
    <i name="NUPDOWN">     -1.00000000</i>
    <i type="logical" name="LSORBIT"> F  </i>
    <v name="SAXIS">      0.00000000      0.00000000      1.00000000</v>
    <i type="logical" name="LSPIRAL"> F  </i>
    <v name="QSPIRAL">      0.00000000      0.00000000      0.00000000</v>
    <i type="logical" name="LZEROZ"> F  </i>
   </separator>
   <separator name="electronic exchange-correlation" >
    <i type="logical" name="LASPH"> F  </i>
    <i type="logical" name="LMETAGGA"> F  </i>
   </separator>
   <separator name="electronic convergence" >
    <i type="int" name="NELM">    60</i>
    <i type="int" name="NELMDL">    -5</i>
    <i type="int" name="NELMIN">     4</i>
    <i name="ENINI">    400.00000000</i>
    <separator name="electronic convergence detail" >
     <i type="logical" name="LDIAG"> T  </i>
     <i type="logical" name="LSUBROT"> F  </i>
     <i name="WEIMIN">      0.00100000</i>
     <i name="EBREAK">      0.00000002</i>
     <i name="DEPER">      0.30000000</i>
     <i type="int" name="NRMM">     4</i>
     <i name="TIME">      0.40000000</i>
    </separator>
   </separator>
   <separator name="electronic mixer" >
    <i name="AMIX">      0.40000000</i>
    <i name="BMIX">      1.00000000</i>
    <i name="AMIN">      0.10000000</i>
    <i name="AMIX_MAG">      1.60000000</i>
    <i name="BMIX_MAG">      1.00000000</i>
    <separator name="electronic mixer details" >
     <i type="int" name="IMIX">     4</i>
     <i type="logical" name="MIXFIRST"> F  </i>
     <i type="int" name="MAXMIX">   -45</i>
     <i name="WC">    100.00000000</i>
     <i type="int" name="INIMIX">     1</i>
     <i type="int" name="MIXPRE">     1</i>
     <i type="int" name="MREMOVE">     5</i>
    </separator>
   </separator>
   <separator name="electronic dipolcorrection" >
    <i type="logical" name="LDIPOL"> F  </i>
    <i type="logical" name="LMONO"> F  </i>
    <i type="int" name="IDIPOL">     0</i>
    <i name="EPSILON">      1.00000000</i>
    <v name="DIPOL">   -100.00000000   -100.00000000   -100.00000000</v>
    <i name="EFIELD">      0.00000000</i>
   </separator>
  </separator>
  <separator name="grids" >
   <i type="int" name="NGX">    28</i>
   <i type="int" name="NGY">    28</i>
   <i type="int" name="NGZ">    28</i>
   <i type="int" name="NGXF">    56</i>
   <i type="int" name="NGYF">    56</i>
   <i type="int" name="NGZF">    56</i>
   <i type="logical" name="ADDGRID"> F  </i>
  </separator>
  <separator name="ionic" >
   <i type="int" name="NSW">   100</i>
   <i type="int" name="IBRION">     2</i>
   <i type="int" name="MDALGO">     0</i>
   <i type="int" name="ISIF">     2</i>
   <i name="PSTRESS">      0.00000000</i>
   <i name="EDIFFG">      0.00001000</i>
   <i type="int" name="NFREE">     1</i>
   <i name="POTIM">      0.50000000</i>
   <i name="SMASS">     -3.00000000</i>
   <i name="SCALEE">      1.00000000</i>
  </separator>
  <separator name="ionic md" >
   <i name="TEBEG">      0.00010000</i>
   <i name="TEEND">      0.00010000</i>
   <i type="int" name="NBLOCK">     1</i>
   <i type="int" name="KBLOCK">   100</i>
   <i type="int" name="NPACO">   256</i>
   <i name="APACO">     10.00000000</i>
  </separator>
  <separator name="symmetry" >
   <i type="int" name="ISYM">     2</i>
   <i name="SYMPREC">      0.00001000</i>
  </separator>
  <separator name="dos" >
   <i type="int" name="LORBIT">     0</i>
   <v name="RWIGS">     -1.00000000</v>
   <i type="int" name="NEDOS">   301</i>
   <i name="EMIN">     10.00000000</i>
   <i name="EMAX">    -10.00000000</i>
   <i name="EFERMI">      0.00000000</i>
  </separator>
  <separator name="writing" >
   <i type="int" name="NWRITE">     2</i>
   <i type="logical" name="LWAVE"> F  </i>
   <i type="logical" name="LDOWNSAMPLE"> F  </i>
   <i type="logical" name="LCHARG"> F  </i>
   <i type="logical" name="LPARD"> F  </i>
   <i type="logical" name="LVTOT"> F  </i>
   <i type="logical" name="LVHAR"> F  </i>
   <i type="logical" name="LELF"> F  </i>
   <i type="logical" name="LOPTICS"> F  </i>
   <v name="STM">      0.00000000      0.00000000      0.00000000      0.00000000      0.00000000      0.00000000      0.00000000</v>
  </separator>
  <separator name="performance" >
   <i type="int" name="NPAR">    14</i>
   <i type="int" name="NSIM">     4</i>
   <i type="int" name="NBLK">    -1</i>
   <i type="logical" name="LPLANE"> T  </i>
   <i type="logical" name="LSCALAPACK"> T  </i>
   <i type="logical" name="LSCAAWARE"> F  </i>
   <i type="logical" name="LSCALU"> F  </i>
   <i type="logical" name="LASYNC"> F  </i>
   <i type="logical" name="LORBITALREAL"> F  </i>
  </separator>
  <separator name="miscellaneous" >
   <i type="int" name="IDIOT">     3</i>
   <i type="int" name="PHON_NSTRUCT">    -1</i>
   <i type="logical" name="LMUSIC"> F  </i>
   <v name="POMASS">     26.98100000</v>
   <v name="DARWINR">      0.00000000</v>
   <v name="DARWINV">      1.00000000</v>
   <i type="logical" name="LCORR"> T  </i>
  </separator>
  <i type="logical" name="GGA_COMPAT"> T  </i>
  <i type="logical" name="LBERRY"> F  </i>
  <i type="int" name="ICORELEVEL">     0</i>
  <i type="logical" name="LDAU"> F  </i>
  <i type="int" name="I_CONSTRAINED_M">     0</i>
  <separator name="electronic exchange-correlation" >
   <i type="string" name="GGA">--</i>
   <i type="int" name="VOSKOWN">     0</i>
   <i type="logical" name="LHFCALC"> F  </i>
   <i type="string" name="PRECFOCK"></i>
   <i type="logical" name="LSYMGRAD"> F  </i>
   <i type="logical" name="LHFONE"> F  </i>
   <i type="logical" name="LRHFCALC"> F  </i>
   <i type="logical" name="LTHOMAS"> F  </i>
   <i type="logical" name="LMODELHF"> F  </i>
   <i type="logical" name="LFOCKACE"> F  </i>
   <i name="ENCUT4O">     -1.00000000</i>
   <i type="int" name="EXXOEP">     0</i>
   <i type="int" name="FOURORBIT">     0</i>
   <i name="AEXX">      0.00000000</i>
   <i name="HFALPHA">      0.00000000</i>
   <i name="MCALPHA">      0.00000000</i>
   <i name="ALDAX">      1.00000000</i>
   <i name="AGGAX">      1.00000000</i>
   <i name="ALDAC">      1.00000000</i>
   <i name="AGGAC">      1.00000000</i>
   <i type="int" name="NKREDX">     1</i>
   <i type="int" name="NKREDY">     1</i>
   <i type="int" name="NKREDZ">     1</i>
   <i type="logical" name="SHIFTRED"> F  </i>
   <i type="logical" name="ODDONLY"> F  </i>
   <i type="logical" name="EVENONLY"> F  </i>
   <i type="int" name="LMAXFOCK">     0</i>
   <i type="int" name="NMAXFOCKAE">     0</i>
   <i type="logical" name="LFOCKAEDFT"> F  </i>
   <i name="HFSCREEN">      0.00000000</i>
   <i name="HFSCREENC">      0.00000000</i>
   <i type="int" name="NBANDSGWLOW">     0</i>
  </separator>
  <separator name="vdW DFT" >
   <i type="logical" name="LUSE_VDW"> F  </i>
   <i type="int" name="IVDW_NL">     1</i>
   <i type="logical" name="LSPIN_VDW"> F  </i>
   <i name="Zab_VDW">     -0.84910000</i>
   <i name="PARAM1">      0.12340000</i>
   <i name="PARAM2">      1.00000000</i>
   <i name="PARAM3">      0.00000000</i>
  </separator>
  <separator name="model GW" >
   <i type="int" name="MODEL_GW">     0</i>
   <i name="MODEL_EPS0">      9.98137161</i>
   <i name="MODEL_ALPHA">      1.00000000</i>
  </separator>
  <separator name="linear response parameters" >
   <i type="logical" name="LEPSILON"> F  </i>
   <i type="logical" name="LRPA"> F  </i>
   <i type="logical" name="LNABLA"> F  </i>
   <i type="logical" name="LVEL"> F  </i>
   <i name="CSHIFT">      0.10000000</i>
   <i name="OMEGAMAX">     -1.00000000</i>
   <i name="DEG_THRESHOLD">      0.00200000</i>
   <i name="RTIME">     -0.10000000</i>
   <i name="WPLASMAI">      0.00000000</i>
   <v name="DFIELD">      0.00000000      0.00000000      0.00000000</v>
   <v name="WPLASMA">      0.00000000      0.00000000      0.00000000      0.00000000      0.00000000      0.00000000      0.00000000      0.00000000      0.00000000</v>
  </separator>
  <separator name="orbital magnetization" >
   <i type="logical" name="NUCIND"> F  </i>
   <v name="MAGPOS">      0.00000000      0.00000000      0.00000000</v>
   <i type="logical" name="LNICSALL"> T  </i>
   <i type="logical" name="ORBITALMAG"> F  </i>
   <i type="logical" name="LMAGBLOCH"> F  </i>
   <i type="logical" name="LCHIMAG"> F  </i>
   <i type="logical" name="LGAUGE"> T  </i>
   <i type="int" name="MAGATOM">     0</i>
   <v name="MAGDIPOL">      0.00000000      0.00000000      0.00000000</v>
   <v name="AVECCONST">      0.00000000      0.00000000      0.00000000</v>
  </separator>
  <separator name="response functions" >
   <i type="logical" name="LALL_IN_ONE"> F  </i>
   <i type="int" name="IALL_IN_ONE">    -1</i>
   <i type="int" name="NBANDS_WAVE">    -1</i>
   <i type="logical" name="LFINITE_TEMPERATURE"> F  </i>
   <i type="logical" name="LADDER"> F  </i>
   <i type="logical" name="LRPAFORCE"> F  </i>
   <i type="logical" name="LFXC"> F  </i>
   <i type="logical" name="LHARTREE"> T  </i>
   <i type="int" name="IBSE">     0</i>
   <v type="int" name="KPOINT">    -1     0     0     0</v>
   <i type="logical" name="LTCTC"> F  </i>
   <i type="logical" name="LTCTE"> F  </i>
   <i type="logical" name="LTETE"> F  </i>
   <i type="logical" name="LTRIPLET"> F  </i>
   <i type="logical" name="LFXCEPS"> F  </i>
   <i type="logical" name="LFXHEG"> F  </i>
   <i type="int" name="NATURALO">     2</i>
   <i type="logical" name="LHOLEGF"> F  </i>
   <i type="logical" name="L2ORDER"> F  </i>
   <i type="logical" name="LDMP1"> F  </i>
   <i type="logical" name="LMP2LT"> F  </i>
   <i type="logical" name="LSMP2LT"> F  </i>
   <i type="logical" name="LGWLF"> F  </i>
   <i name="ENCUTGW">     -1.60000002</i>
   <i name="ENCUTGWSOFT">     -1.60000002</i>
   <i name="ENCUTLF">     -1.00000000</i>
   <i type="logical" name="LESF_SPLINES"> F  </i>
   <i type="int" name="LMAXMP2">    -1</i>
   <i name="SCISSOR">      0.00000000</i>
   <i type="int" name="NOMEGA">     0</i>
   <i type="int" name="NOMEGAR">     0</i>
   <i type="int" name="NBANDSGW">    -1</i>
   <i type="int" name="NBANDSO">    -1</i>
   <i type="int" name="NBANDSV">    -1</i>
   <i type="int" name="NELMGW">     1</i>
   <i type="int" name="NELMHF">     1</i>
   <i type="int" name="DIM">     3</i>
   <i type="int" name="IESPILON">     4</i>
   <i type="int" name="ANTIRES">     0</i>
   <i name="OMEGAMAX">    -30.00000000</i>
   <i name="OMEGAMIN">    -30.00000000</i>
   <i name="OMEGATL">   -200.00000000</i>
   <i type="int" name="OMEGAGRID">     0</i>
   <i name="CSHIFT">     -0.10000000</i>
   <i type="logical" name="LSELFENERGY"> F  </i>
   <i type="logical" name="LSPECTRAL"> F  </i>
   <i type="logical" name="LSPECTRALGW"> F  </i>
   <i type="logical" name="LSINGLES"> F  </i>
   <i type="logical" name="LFERMIGW"> F  </i>
   <i type="logical" name="ODDONLYGW"> F  </i>
   <i type="logical" name="EVENONLYGW"> F  </i>
   <i type="int" name="NKREDLFX">     1</i>
   <i type="int" name="NKREDLFY">     1</i>
   <i type="int" name="NKREDLFZ">     1</i>
   <i type="int" name="MAXMEM">  2800</i>
   <i type="int" name="TELESCOPE">     0</i>
   <i type="int" name="NTAUPAR">    -1</i>
   <i type="int" name="NOMEGAPAR">    -1</i>
   <i name="DAMP_NEWTON">      0.80000001</i>
   <i name="LAMBDA">      1.00000000</i>
  </separator>
  <separator name="External order field" >
   <i name="OFIELD_KAPPA">      0.00000000</i>
   <v name="OFIELD_K">      0.00000000      0.00000000      0.00000000</v>
   <i name="OFIELD_Q6_NEAR">      0.00000000</i>
   <i name="OFIELD_Q6_FAR">      0.00000000</i>
   <i name="OFIELD_A">      0.00000000</i>
  </separator>
  <separator name="optional k-points parameters" >
   <i type="int" name="KPOINTS_OPT_MODE">     1</i>
   <i type="logical" name="LKPOINTS_OPT"> F  </i>
  </separator>
 </parameters>
 <atominfo>
  <atoms>       4 </atoms>
  <types>       1 </types>
  <array name="atoms" >
   <dimension dim="1">ion</dimension>
   <field type="string">element</field>
   <field type="int">atomtype</field>
   <set>
    <rc><c>Al</c><c>   1</c></rc>
    <rc><c>Al</c><c>   1</c></rc>
    <rc><c>Al</c><c>   1</c></rc>
    <rc><c>Al</c><c>   1</c></rc>
   </set>
  </array>
  <array name="atomtypes" >
   <dimension dim="1">type</dimension>
   <field type="int">atomspertype</field>
   <field type="string">element</field>
   <field>mass</field>
   <field>valence</field>
   <field type="string">pseudopotential</field>
   <set>
    <rc><c>   4</c><c>Al</c><c>     26.98100000</c><c>      3.00000000</c><c>  PAW_PBE Al 04Jan2001                  </c></rc>
   </set>
  </array>
 </atominfo>
 <structure name="initialpos" >
  <crystal>
   <varray name="basis" >
    <v>       4.03892969       0.00000000       0.00000000 </v>
    <v>      -0.00000000       4.07911904       0.00000000 </v>
    <v>       0.00000000       0.00000000       4.03892969 </v>
   </varray>
   <i name="volume">     66.54247742 </i>
   <varray name="rec_basis" >
    <v>       0.24759035       0.00000000      -0.00000000 </v>
    <v>       0.00000000       0.24515097      -0.00000000 </v>
    <v>       0.00000000      -0.00000000       0.24759035 </v>
   </varray>
  </crystal>
  <varray name="positions" >
   <v>       0.00000000       0.00000000       0.00000000 </v>
   <v>       0.00000000       0.50000000       0.50000000 </v>
   <v>       0.50000000       0.00000000       0.50000000 </v>
   <v>       0.50000000       0.50000000       0.00000000 </v>
  </varray>
 </structure>
 <calculation>
  <scstep>
   <time name="dav">   26.51   13.31</time>
   <time name="total">   26.56   13.34</time>
   <energy>
    <i name="alphaZ">     -0.80761884 </i>
    <i name="ewald">   -293.26113296 </i>
    <i name="hartreedc">     -0.41805470 </i>
    <i name="XCdc">   -105.01784808 </i>
    <i name="pawpsdc">    264.80062850 </i>
    <i name="pawaedc">   -136.98248303 </i>
    <i name="eentropy">      0.00046104 </i>
    <i name="bandstr">     55.20130396 </i>
    <i name="atom">    214.15261729 </i>
    <i name="e_fr_energy">     -2.33212682 </i>
    <i name="e_wo_entrp">     -2.33258786 </i>
    <i name="e_0_energy">     -2.33228050 </i>
   </energy>
  </scstep>
  <scstep>
   <time name="dav">   38.08   19.14</time>
   <time name="total">   38.09   19.14</time>
   <energy>
    <i name="e_fr_energy">    -15.00082844 </i>
    <i name="e_wo_entrp">    -15.00255761 </i>
    <i name="e_0_energy">    -15.00140483 </i>
   </energy>
  </scstep>
  <scstep>
   <time name="dav">   34.84   17.51</time>
   <time name="total">   34.85   17.52</time>
   <energy>
    <i name="e_fr_energy">    -15.07392463 </i>
    <i name="e_wo_entrp">    -15.07572692 </i>
    <i name="e_0_energy">    -15.07452539 </i>
   </energy>
  </scstep>
  <scstep>
   <time name="dav">   43.85   22.04</time>
   <time name="total">   43.85   22.04</time>
   <energy>
    <i name="e_fr_energy">    -15.07410961 </i>
    <i name="e_wo_entrp">    -15.07591231 </i>
    <i name="e_0_energy">    -15.07471051 </i>
   </energy>
  </scstep>
  <scstep>
   <time name="dav">   35.58   17.87</time>
   <time name="total">   36.49   18.32</time>
   <energy>
    <i name="e_fr_energy">    -15.07410971 </i>
    <i name="e_wo_entrp">    -15.07591240 </i>
    <i name="e_0_energy">    -15.07471061 </i>
   </energy>
  </scstep>
  <scstep>
   <time name="diag">    4.34    2.17</time>
   <time name="diis">    8.51    4.47</time>
   <time name="orth">    0.31    0.15</time>
   <time name="total">   14.09    7.26</time>
   <energy>
    <i name="e_fr_energy">    -15.02239340 </i>
    <i name="e_wo_entrp">    -15.02420055 </i>
    <i name="e_0_energy">    -15.02299578 </i>
   </energy>
  </scstep>
  <scstep>
   <time name="diag">    4.41    2.21</time>
   <time name="diis">    8.56    4.50</time>
   <time name="orth">    0.31    0.15</time>
   <time name="total">   14.22    7.33</time>
   <energy>
    <i name="e_fr_energy">    -14.98457172 </i>
    <i name="e_wo_entrp">    -14.98637038 </i>
    <i name="e_0_energy">    -14.98517127 </i>
   </energy>
  </scstep>
  <scstep>
   <time name="diag">    4.51    2.26</time>
   <time name="diis">    8.61    4.56</time>
   <time name="orth">    0.30    0.15</time>
   <time name="total">   14.36    7.44</time>
   <energy>
    <i name="e_fr_energy">    -14.98454055 </i>
    <i name="e_wo_entrp">    -14.98633917 </i>
    <i name="e_0_energy">    -14.98514009 </i>
   </energy>
  </scstep>
  <scstep>
   <time name="diag">    4.45    2.23</time>
   <time name="diis">    8.56    4.51</time>
   <time name="orth">    0.29    0.15</time>
   <time name="total">   14.25    7.36</time>
   <energy>
    <i name="e_fr_energy">    -14.98454622 </i>
    <i name="e_wo_entrp">    -14.98634465 </i>
    <i name="e_0_energy">    -14.98514570 </i>
   </energy>
  </scstep>
  <scstep>
   <time name="diag">    4.40    2.20</time>
   <time name="diis">    8.65    4.56</time>
   <time name="orth">    0.30    0.15</time>
   <time name="total">   14.30    7.39</time>
   <energy>
    <i name="e_fr_energy">    -14.98454735 </i>
    <i name="e_wo_entrp">    -14.98634580 </i>
    <i name="e_0_energy">    -14.98514683 </i>
   </energy>
  </scstep>
  <scstep>
   <time name="diag">    4.44    2.22</time>
   <time name="diis">    8.18    4.39</time>
   <time name="orth">    0.31    0.16</time>
   <time name="total">   13.88    7.25</time>
   <energy>
    <i name="e_fr_energy">    -14.98454275 </i>
    <i name="e_wo_entrp">    -14.98634114 </i>
    <i name="e_0_energy">    -14.98514221 </i>
   </energy>
  </scstep>
  <scstep>
   <time name="diag">    4.49    2.25</time>
   <time name="diis">    6.65    4.12</time>
   <time name="orth">    0.53    0.28</time>
   <time name="total">   11.72    6.67</time>
   <energy>
    <i name="alphaZ">     -0.80761884 </i>
    <i name="ewald">   -293.26113296 </i>
    <i name="hartreedc">     -0.41364480 </i>
    <i name="XCdc">   -104.58892269 </i>
    <i name="pawpsdc">    555.32899572 </i>
    <i name="pawaedc">   -427.55543480 </i>
    <i name="eentropy">      0.00179839 </i>
    <i name="bandstr">     42.15879998 </i>
    <i name="atom">    214.15261729 </i>
    <i name="e_fr_energy">    -14.98454270 </i>
    <i name="e_wo_entrp">    -14.98634109 </i>
    <i name="e_0_energy">    -14.98514216 </i>
   </energy>
  </scstep>
  <structure>
   <crystal>
    <varray name="basis" >
     <v>       4.03892969       0.00000000       0.00000000 </v>
     <v>      -0.00000000       4.07911904       0.00000000 </v>
     <v>       0.00000000       0.00000000       4.03892969 </v>
    </varray>
    <i name="volume">     66.54247742 </i>
    <varray name="rec_basis" >
     <v>       0.24759035       0.00000000      -0.00000000 </v>
     <v>       0.00000000       0.24515097      -0.00000000 </v>
     <v>       0.00000000      -0.00000000       0.24759035 </v>
    </varray>
   </crystal>
   <varray name="positions" >
    <v>       0.00000000       0.00000000       0.00000000 </v>
    <v>       0.00000000       0.50000000       0.50000000 </v>
    <v>       0.50000000       0.00000000       0.50000000 </v>
    <v>       0.50000000       0.50000000       0.00000000 </v>
   </varray>
  </structure>
  <varray name="forces" >
   <v>       0.00000000       0.00000000      -0.00000000 </v>
   <v>       0.00000000      -0.00000000      -0.00000000 </v>
   <v>      -0.00000000      -0.00000000       0.00000000 </v>
   <v>       0.00000000       0.00000000      -0.00000000 </v>
  </varray>
  <varray name="stress" >
   <v>      -4.79442757       0.00000000       0.00000000 </v>
   <v>       0.00000000     -13.00824019      -0.00000000 </v>
   <v>       0.00000000       0.00000000      -4.79442757 </v>
  </varray>
  <energy>
   <i name="e_fr_energy">    -14.98454270 </i>
   <i name="e_wo_entrp">    -14.98634109 </i>
   <i name="e_0_energy">    -14.98514216 </i>
  </energy>
  <time name="totalsc">  300.73  153.41</time>
  <eigenvalues>
   <array>
    <dimension dim="1">band</dimension>
    <dimension dim="2">kpoint</dimension>
    <dimension dim="3">spin</dimension>
    <field>eigene</field>
    <field>occ</field>
    <set>
     <set comment="spin 1">
      <set comment="kpoint 1">
       <r>   -3.1460    1.0000 </r>
       <r>    4.8038    1.0000 </r>
       <r>    4.9451    1.0000 </r>
       <r>    4.9451    1.0000 </r>
       <r>    6.3258    1.0000 </r>
       <r>    6.5283    1.0000 </r>
       <r>    6.5283    1.0000 </r>
       <r>   12.6523   -0.0000 </r>
       <r>   12.6523   -0.0000 </r>
       <r>   12.7868   -0.0000 </r>
       <r>   13.4248    0.0000 </r>
       <r>   13.4248    0.0000 </r>
       <r>   13.6072    0.0000 </r>
       <r>   13.8288    0.0000 </r>
      </set>
      <set comment="kpoint 2">
       <r>   -3.1007    1.0000 </r>
       <r>    4.3190    1.0000 </r>
       <r>    4.8457    1.0000 </r>
       <r>    4.9869    1.0000 </r>
       <r>    6.3695    1.0000 </r>
       <r>    6.5719    1.0000 </r>
       <r>    7.2329    1.0000 </r>
       <r>   11.9417   -0.0000 </r>
       <r>   12.0733   -0.0000 </r>
       <r>   12.6945   -0.0000 </r>
       <r>   13.1374   -0.0000 </r>
       <r>   13.3452   -0.0000 </r>
       <r>   13.4634    0.0000 </r>
       <r>   13.8702    0.0000 </r>
      </set>
      <set comment="kpoint 3">
       <r>   -3.0100    1.0000 </r>
       <r>    3.5937    1.0000 </r>
       <r>    4.9294    1.0000 </r>
       <r>    5.0705    1.0000 </r>
       <r>    6.4567    1.0000 </r>
       <r>    6.6589    1.0000 </r>
       <r>    8.1154   -0.0176 </r>
       <r>   11.2074   -0.0000 </r>
       <r>   11.3391   -0.0000 </r>
       <r>   12.6348   -0.0000 </r>
       <r>   12.7790   -0.0000 </r>
       <r>   12.8425   -0.0000 </r>
       <r>   13.5406    0.0000 </r>
       <r>   13.9528    0.0000 </r>
      </set>
      <set comment="kpoint 4">
       <r>   -2.8740    1.0000 </r>
       <r>    2.8763    1.0000 </r>
       <r>    5.0551    1.0000 </r>
       <r>    5.1960    1.0000 </r>
       <r>    6.5871    1.0000 </r>
       <r>    6.7887    1.0000 </r>
       <r>    9.0683   -0.0000 </r>
       <r>   10.5030   -0.0000 </r>
       <r>   10.6353   -0.0000 </r>
       <r>   12.0589   -0.0000 </r>
       <r>   12.2652   -0.0000 </r>
       <r>   12.9055   -0.0000 </r>
       <r>   13.6565    0.0000 </r>
       <r>   14.0768    0.0000 </r>
      </set>
      <set comment="kpoint 5">
       <r>   -2.6930    1.0000 </r>
       <r>    2.1879    1.0000 </r>
       <r>    5.2226    1.0000 </r>
       <r>    5.3632    1.0000 </r>
       <r>    6.7599    1.0000 </r>
       <r>    6.9606    1.0000 </r>
       <r>    9.8367   -0.0000 </r>
       <r>    9.9697   -0.0000 </r>
       <r>   10.0703   -0.0000 </r>
       <r>   11.4674   -0.0000 </r>
       <r>   11.6721   -0.0000 </r>
       <r>   13.0740   -0.0000 </r>
       <r>   13.8110    0.0000 </r>
       <r>   14.2424    0.0000 </r>
      </set>
      <set comment="kpoint 6">
       <r>   -2.4670    1.0000 </r>
       <r>    1.5355    1.0000 </r>
       <r>    5.4320    1.0000 </r>
       <r>    5.5722    1.0000 </r>
       <r>    6.9736    1.0000 </r>
       <r>    7.1727    1.0000 </r>
       <r>    9.2113   -0.0000 </r>
       <r>    9.3447   -0.0000 </r>
       <r>   10.8874   -0.0000 </r>
       <r>   11.0899   -0.0000 </r>
       <r>   11.1143   -0.0000 </r>
       <r>   13.2843   -0.0000 </r>
       <r>   14.0042    0.0000 </r>
       <r>   14.4495    0.0000 </r>
      </set>
      <set comment="kpoint 7">
       <r>   -2.1963    1.0000 </r>
       <r>    0.9219    1.0000 </r>
       <r>    5.6832    1.0000 </r>
       <r>    5.8229    1.0000 </r>
       <r>    7.2257    1.0000 </r>
       <r>    7.4209    1.0010 </r>
       <r>    8.6291   -0.0000 </r>
       <r>    8.7620   -0.0000 </r>
       <r>   10.3341   -0.0000 </r>
       <r>   10.5333   -0.0000 </r>
       <r>   12.1967   -0.0000 </r>
       <r>   13.5363    0.0000 </r>
       <r>   14.2361    0.0000 </r>
       <r>   14.6984    0.0000 </r>
      </set>
      <set comment="kpoint 8">
       <r>   -1.8812    1.0000 </r>
       <r>    0.3487    1.0000 </r>
       <r>    5.9761    1.0000 </r>
       <r>    6.1151    1.0000 </r>
       <r>    7.5076    1.0057 </r>
       <r>    7.6861    1.0354 </r>
       <r>    8.1032   -0.0075 </r>
       <r>    8.2262   -0.0279 </r>
       <r>    9.8207   -0.0000 </r>
       <r>   10.0131   -0.0000 </r>
       <r>   13.3137   -0.0000 </r>
       <r>   13.8311    0.0000 </r>
       <r>   14.5068    0.0000 </r>
       <r>   14.9893    0.0000 </r>
      </set>
      <set comment="kpoint 9">
       <r>   -1.5219    1.0000 </r>
       <r>   -0.1829    1.0000 </r>
       <r>    6.3104    1.0000 </r>
       <r>    6.4487    1.0000 </r>
       <r>    7.5504    1.0114 </r>
       <r>    7.6540    1.0329 </r>
       <r>    7.8919    0.6480 </r>
       <r>    8.0315    0.1191 </r>
       <r>    9.3713   -0.0000 </r>
       <r>    9.5444   -0.0000 </r>
       <r>   14.1533    0.0000 </r>
       <r>   14.4779    0.0000 </r>
       <r>   14.8164    0.0000 </r>
       <r>   15.3574    0.0000 </r>
      </set>
      <set comment="kpoint 10">
       <r>   -1.1188    1.0000 </r>
       <r>   -0.6723    1.0000 </r>
[...]
       <r>    1.1396    1.0000 </r>
       <r>    1.5791    1.0000 </r>
       <r>    1.5791    1.0000 </r>
       <r>    2.0173    1.0000 </r>
       <r>    6.6423    1.0000 </r>
       <r>    7.0675    1.0000 </r>
       <r>    7.0675    1.0000 </r>
       <r>    7.4920    1.0043 </r>
       <r>   12.6207   -0.0000 </r>
       <r>   13.0278   -0.0000 </r>
       <r>   13.0278   -0.0000 </r>
       <r>   13.4338    0.0000 </r>
       <r>   17.3418    0.0000 </r>
       <r>   17.4335    0.0000 </r>
      </set>
      <set comment="kpoint 545">
       <r>    1.3123    1.0000 </r>
       <r>    1.7513    1.0000 </r>
       <r>    1.7513    1.0000 </r>
       <r>    2.1888    1.0000 </r>
       <r>    5.9853    1.0000 </r>
       <r>    6.4121    1.0000 </r>
       <r>    6.4121    1.0000 </r>
       <r>    6.8381    1.0000 </r>
       <r>   13.5691    0.0000 </r>
       <r>   13.9700    0.0000 </r>
       <r>   13.9700    0.0000 </r>
       <r>   14.3700    0.0000 </r>
       <r>   17.4943    0.0000 </r>
       <r>   17.5855    0.0000 </r>
      </set>
      <set comment="kpoint 546">
       <r>    1.5278    1.0000 </r>
       <r>    1.9661    1.0000 </r>
       <r>    1.9661    1.0000 </r>
       <r>    2.4028    1.0000 </r>
       <r>    5.3620    1.0000 </r>
       <r>    5.7900    1.0000 </r>
       <r>    5.7900    1.0000 </r>
       <r>    6.2175    1.0000 </r>
       <r>   14.5513    0.0000 </r>
       <r>   14.9431    0.0000 </r>
       <r>   14.9431    0.0000 </r>
       <r>   15.3346    0.0000 </r>
       <r>   17.6908    0.0000 </r>
       <r>   17.7742    0.0000 </r>
      </set>
      <set comment="kpoint 547">
       <r>    1.7860    1.0000 </r>
       <r>    2.2234    1.0000 </r>
       <r>    2.2234    1.0000 </r>
       <r>    2.6588    1.0000 </r>
       <r>    4.7759    1.0000 </r>
       <r>    5.2049    1.0000 </r>
       <r>    5.2049    1.0000 </r>
       <r>    5.6335    1.0000 </r>
       <r>   15.5582    0.0000 </r>
       <r>   15.9354    0.0000 </r>
       <r>   15.9354    0.0000 </r>
       <r>   16.3137    0.0000 </r>
       <r>   17.9519    0.0000 </r>
       <r>   17.9989    0.0000 </r>
      </set>
      <set comment="kpoint 548">
       <r>    2.0865    1.0000 </r>
       <r>    2.5225    1.0000 </r>
       <r>    2.5225    1.0000 </r>
       <r>    2.9554    1.0000 </r>
       <r>    4.2302    1.0000 </r>
       <r>    4.6589    1.0000 </r>
       <r>    4.6589    1.0000 </r>
       <r>    5.0883    1.0000 </r>
       <r>   16.5769    0.0000 </r>
       <r>   16.9274    0.0000 </r>
       <r>   16.9274    0.0000 </r>
       <r>   17.2850    0.0000 </r>
       <r>   18.1858    0.0000 </r>
       <r>   18.2555    0.0000 </r>
      </set>
      <set comment="kpoint 549">
       <r>    2.4288    1.0000 </r>
       <r>    2.8622    1.0000 </r>
       <r>    2.8622    1.0000 </r>
       <r>    3.2828    1.0000 </r>
       <r>    3.7357    1.0000 </r>
       <r>    4.1542    1.0000 </r>
       <r>    4.1542    1.0000 </r>
       <r>    4.5832    1.0000 </r>
       <r>   17.5861    0.0000 </r>
       <r>   17.8773    0.0000 </r>
       <r>   17.8776    0.0000 </r>
       <r>   18.2086    0.0000 </r>
       <r>   18.5030    0.0000 </r>
       <r>   18.5360    0.0000 </r>
      </set>
      <set comment="kpoint 550">
       <r>    2.8114    1.0000 </r>
       <r>    3.2255    1.0000 </r>
       <r>    3.2332    1.0000 </r>
       <r>    3.2332    1.0000 </r>
       <r>    3.7006    1.0000 </r>
       <r>    3.7006    1.0000 </r>
       <r>    3.7083    1.0000 </r>
       <r>    4.1202    1.0000 </r>
       <r>   18.5446    0.0000 </r>
       <r>   18.6435    0.0000 </r>
       <r>   18.6594    0.0000 </r>
       <r>   18.7831    0.0000 </r>
       <r>   18.8348    0.0000 </r>
       <r>   18.9860    0.0000 </r>
      </set>
     </set>
    </set>
   </array>
  </eigenvalues>
  <separator name="orbital magnetization" >
   <v name="MAGDIPOLOUT">      0.00000000      0.00000000      0.00000000</v>
  </separator>
  <dos>
   <i name="efermi">      7.92746981 </i>
   <total>
    <array>
     <dimension dim="1">gridpoints</dimension>
     <dimension dim="2">spin</dimension>
     <field>energy</field>
     <field>total</field>
     <field>integrated</field>
     <set>
      <set comment="spin 1">
       <r>    -5.1460     0.0000     0.0000 </r>
       <r>    -5.0589     0.0000     0.0000 </r>
       <r>    -4.9718     0.0000     0.0000 </r>
       <r>    -4.8847     0.0000     0.0000 </r>
       <r>    -4.7976    -0.0000    -0.0000 </r>
       <r>    -4.7105    -0.0000    -0.0000 </r>
       <r>    -4.6234    -0.0000    -0.0000 </r>
       <r>    -4.5363    -0.0000    -0.0000 </r>
       <r>    -4.4492    -0.0000    -0.0000 </r>
       <r>    -4.3621    -0.0000    -0.0000 </r>
       <r>    -4.2750    -0.0000    -0.0000 </r>
       <r>    -4.1879    -0.0000    -0.0000 </r>
       <r>    -4.1008    -0.0000    -0.0000 </r>
       <r>    -4.0136    -0.0000    -0.0000 </r>
       <r>    -3.9265    -0.0000    -0.0000 </r>
       <r>    -3.8394    -0.0000    -0.0000 </r>
       <r>    -3.7523    -0.0000    -0.0000 </r>
       <r>    -3.6652    -0.0000    -0.0000 </r>
       <r>    -3.5781    -0.0003    -0.0000 </r>
       <r>    -3.4910    -0.0013    -0.0001 </r>
       <r>    -3.4039    -0.0038    -0.0005 </r>
       <r>    -3.3168    -0.0053    -0.0009 </r>
       <r>    -3.2297     0.0048    -0.0005 </r>
       <r>    -3.1426     0.0405     0.0030 </r>
       <r>    -3.0555     0.1015     0.0118 </r>
       <r>    -2.9684     0.1686     0.0265 </r>
       <r>    -2.8813     0.2243     0.0461 </r>
       <r>    -2.7942     0.2661     0.0693 </r>
       <r>    -2.7070     0.3002     0.0954 </r>
       <r>    -2.6199     0.3297     0.1241 </r>
       <r>    -2.5328     0.3569     0.1552 </r>
       <r>    -2.4457     0.3843     0.1887 </r>
       <r>    -2.3586     0.4079     0.2242 </r>
       <r>    -2.2715     0.4280     0.2615 </r>
       <r>    -2.1844     0.4535     0.3010 </r>
       <r>    -2.0973     0.4775     0.3426 </r>
       <r>    -2.0102     0.4910     0.3854 </r>
       <r>    -1.9231     0.5070     0.4295 </r>
       <r>    -1.8360     0.5360     0.4762 </r>
       <r>    -1.7489     0.5594     0.5249 </r>
       <r>    -1.6618     0.5616     0.5739 </r>
       <r>    -1.5747     0.5711     0.6236 </r>
       <r>    -1.4876     0.6078     0.6765 </r>
       <r>    -1.4004     0.6346     0.7318 </r>
       <r>    -1.3133     0.6315     0.7868 </r>
       <r>    -1.2262     0.6323     0.8419 </r>
       <r>    -1.1391     0.6577     0.8992 </r>
       <r>    -1.0520     0.6906     0.9594 </r>
       <r>    -0.9649     0.7116     1.0213 </r>
       <r>    -0.8778     0.7133     1.0835 </r>
       <r>    -0.7907     0.7011     1.1445 </r>
       <r>    -0.7036     0.7106     1.2064 </r>
       <r>    -0.6165     0.7637     1.2730 </r>
       <r>    -0.5294     0.8063     1.3432 </r>
       <r>    -0.4423     0.7868     1.4117 </r>
       <r>    -0.3552     0.7526     1.4773 </r>
       <r>    -0.2681     0.7741     1.5447 </r>
       <r>    -0.1810     0.8296     1.6170 </r>
       <r>    -0.0938     0.8556     1.6915 </r>
       <r>    -0.0067     0.8553     1.7660 </r>
       <r>     0.0804     0.8566     1.8406 </r>
       <r>     0.1675     0.8544     1.9151 </r>
       <r>     0.2546     0.8513     1.9892 </r>
       <r>     0.3417     0.8685     2.0649 </r>
       <r>     0.4288     0.9145     2.1445 </r>
       <r>     0.5159     0.9609     2.2282 </r>
       <r>     0.6030     0.9624     2.3121 </r>
       <r>     0.6901     0.9190     2.3921 </r>
       <r>     0.7772     0.8840     2.4691 </r>
       <r>     0.8643     0.9144     2.5488 </r>
       <r>     0.9514     1.0019     2.6360 </r>
       <r>     1.0385     1.0554     2.7280 </r>
       <r>     1.1256     1.0217     2.8170 </r>
       <r>     1.2128     0.9694     2.9014 </r>
       <r>     1.2999     0.9775     2.9866 </r>
       <r>     1.3870     1.0211     3.0755 </r>
       <r>     1.4741     1.0381     3.1659 </r>
       <r>     1.5612     1.0375     3.2563 </r>
       <r>     1.6483     1.0603     3.3487 </r>
       <r>     1.7354     1.1027     3.4447 </r>
       <r>     1.8225     1.1265     3.5428 </r>
       <r>     1.9096     1.1032     3.6389 </r>
       <r>     1.9967     1.0487     3.7303 </r>
       <r>     2.0838     1.0306     3.8201 </r>
       <r>     2.1709     1.0958     3.9155 </r>
       <r>     2.2580     1.1835     4.0186 </r>
       <r>     2.3451     1.2139     4.1243 </r>
       <r>     2.4322     1.2002     4.2289 </r>
       <r>     2.5194     1.1631     4.3302 </r>
       <r>     2.6065     1.1083     4.4267 </r>
       <r>     2.6936     1.1015     4.5227 </r>
       <r>     2.7807     1.1789     4.6254 </r>
       <r>     2.8678     1.2597     4.7351 </r>
       <r>     2.9549     1.2672     4.8455 </r>
       <r>     3.0420     1.2356     4.9531 </r>
       <r>     3.1291     1.2246     5.0598 </r>
       <r>     3.2162     1.2407     5.1679 </r>
       <r>     3.3033     1.2738     5.2788 </r>
       <r>     3.3904     1.2925     5.3914 </r>
       <r>     3.4775     1.2552     5.5007 </r>
       <r>     3.5646     1.2049     5.6057 </r>
       <r>     3.6517     1.2368     5.7134 </r>
       <r>     3.7388     1.3448     5.8306 </r>
       <r>     3.8260     1.4153     5.9539 </r>
       <r>     3.9131     1.3845     6.0745 </r>
       <r>     4.0002     1.3026     6.1879 </r>
       <r>     4.0873     1.2508     6.2969 </r>
       <r>     4.1744     1.2640     6.4070 </r>
       <r>     4.2615     1.3335     6.5231 </r>
       <r>     4.3486     1.4280     6.6475 </r>
       <r>     4.4357     1.4850     6.7769 </r>
       <r>     4.5228     1.4614     6.9042 </r>
       <r>     4.6099     1.3994     7.0261 </r>
       <r>     4.6970     1.3695     7.1453 </r>
       <r>     4.7841     1.3921     7.2666 </r>
       <r>     4.8712     1.4561     7.3934 </r>
       <r>     4.9583     1.5363     7.5273 </r>
       <r>     5.0454     1.5836     7.6652 </r>
       <r>     5.1326     1.5732     7.8022 </r>
       <r>     5.2197     1.5330     7.9358 </r>
       <r>     5.3068     1.4903     8.0656 </r>
       <r>     5.3939     1.4738     8.1940 </r>
       <r>     5.4810     1.5099     8.3255 </r>
       <r>     5.5681     1.5547     8.4609 </r>
       <r>     5.6552     1.5367     8.5948 </r>
       <r>     5.7423     1.4602     8.7220 </r>
       <r>     5.8294     1.3889     8.8429 </r>
       <r>     5.9165     1.3620     8.9616 </r>
       <r>     6.0036     1.3846     9.0822 </r>
       <r>     6.0907     1.4355     9.2072 </r>
       <r>     6.1778     1.4589     9.3343 </r>
       <r>     6.2649     1.4358     9.4594 </r>
       <r>     6.3520     1.4020     9.5815 </r>
       <r>     6.4392     1.3758     9.7013 </r>
       <r>     6.5263     1.3892     9.8224 </r>
       <r>     6.6134     1.4859     9.9518 </r>
       <r>     6.7005     1.6014    10.0913 </r>
       <r>     6.7876     1.6149    10.2319 </r>
       <r>     6.8747     1.5368    10.3658 </r>
       <r>     6.9618     1.4879    10.4954 </r>
       <r>     7.0489     1.5180    10.6276 </r>
       <r>     7.1360     1.5738    10.7647 </r>
       <r>     7.2231     1.6035    10.9044 </r>
       <r>     7.3102     1.5882    11.0427 </r>
       <r>     7.3973     1.5361    11.1765 </r>
       <r>     7.4844     1.5068    11.3078 </r>
       <r>     7.5715     1.5564    11.4434 </r>
       <r>     7.6586     1.6349    11.5858 </r>
       <r>     7.7457     1.6334    11.7281 </r>
       <r>     7.8329     1.5411    11.8623 </r>
       <r>     7.9200     1.4565    11.9892 </r>
       <r>     8.0071     1.4706    12.1173 </r>
       <r>     8.0942     1.6160    12.2580 </r>
       <r>     8.1813     1.8176    12.4164 </r>
       <r>     8.2684     1.9078    12.5825 </r>
       <r>     8.3555     1.8184    12.7409 </r>
       <r>     8.4426     1.6617    12.8857 </r>
       <r>     8.5297     1.5718    13.0226 </r>
       <r>     8.6168     1.5814    13.1603 </r>
       <r>     8.7039     1.6466    13.3038 </r>
       <r>     8.7910     1.7038    13.4522 </r>
       <r>     8.8781     1.7158    13.6016 </r>
       <r>     8.9652     1.6935    13.7492 </r>
       <r>     9.0523     1.6684    13.8945 </r>
       <r>     9.1395     1.6749    14.0404 </r>
       <r>     9.2266     1.7370    14.1917 </r>
       <r>     9.3137     1.8306    14.3511 </r>
       <r>     9.4008     1.8816    14.5150 </r>
       <r>     9.4879     1.8268    14.6742 </r>
       <r>     9.5750     1.6979    14.8221 </r>
       <r>     9.6621     1.5981    14.9613 </r>
       <r>     9.7492     1.5966    15.1004 </r>
       <r>     9.8363     1.6973    15.2482 </r>
       <r>     9.9234     1.8470    15.4091 </r>
       <r>    10.0105     1.9645    15.5802 </r>
       <r>    10.0976     1.9984    15.7543 </r>
       <r>    10.1847     1.9143    15.9210 </r>
       <r>    10.2718     1.7229    16.0711 </r>
       <r>    10.3589     1.5975    16.2103 </r>
       <r>    10.4461     1.7184    16.3599 </r>
       <r>    10.5332     1.9548    16.5302 </r>
       <r>    10.6203     2.0331    16.7073 </r>
       <r>    10.7074     1.9448    16.8767 </r>
       <r>    10.7945     1.8524    17.0381 </r>
       <r>    10.8816     1.7922    17.1942 </r>
       <r>    10.9687     1.7504    17.3466 </r>
       <r>    11.0558     1.7964    17.5031 </r>
       <r>    11.1429     1.9217    17.6705 </r>
       <r>    11.2300     1.9918    17.8440 </r>
       <r>    11.3171     1.9931    18.0176 </r>
       <r>    11.4042     2.0228    18.1938 </r>
       <r>    11.4913     2.0414    18.3716 </r>
       <r>    11.5784     1.9670    18.5430 </r>
       <r>    11.6655     1.8725    18.7061 </r>
       <r>    11.7527     1.8580    18.8679 </r>
       <r>    11.8398     1.9083    19.0342 </r>
       <r>    11.9269     1.9558    19.2045 </r>
       <r>    12.0140     1.9670    19.3759 </r>
       <r>    12.1011     1.9757    19.5480 </r>
       <r>    12.1882     2.0250    19.7244 </r>
       <r>    12.2753     2.1051    19.9077 </r>
       <r>    12.3624     2.1730    20.0970 </r>
       <r>    12.4495     2.1629    20.2854 </r>
       <r>    12.5366     2.0603    20.4649 </r>
       <r>    12.6237     1.9643    20.6360 </r>
       <r>    12.7108     1.9609    20.8068 </r>
       <r>    12.7979     2.0277    20.9834 </r>
       <r>    12.8850     2.0976    21.1662 </r>
       <r>    12.9721     2.1490    21.3533 </r>
       <r>    13.0593     2.2124    21.5461 </r>
       <r>    13.1464     2.2622    21.7431 </r>
       <r>    13.2335     2.2215    21.9366 </r>
       <r>    13.3206     2.1425    22.1233 </r>
       <r>    13.4077     2.1759    22.3128 </r>
       <r>    13.4948     2.3190    22.5148 </r>
       <r>    13.5819     2.4315    22.7266 </r>
       <r>    13.6690     2.4632    22.9412 </r>
       <r>    13.7561     2.4336    23.1531 </r>
       <r>    13.8432     2.3422    23.3572 </r>
       <r>    13.9303     2.2233    23.5508 </r>
       <r>    14.0174     2.1559    23.7386 </r>
       <r>    14.1045     2.1963    23.9299 </r>
       <r>    14.1916     2.2898    24.1294 </r>
       <r>    14.2787     2.2801    24.3280 </r>
       <r>    14.3659     2.1470    24.5150 </r>
       <r>    14.4530     2.0627    24.6947 </r>
       <r>    14.5401     2.0582    24.8740 </r>
       <r>    14.6272     2.0109    25.0491 </r>
       <r>    14.7143     1.9514    25.2191 </r>
       <r>    14.8014     1.9779    25.3914 </r>
       <r>    14.8885     2.0280    25.5681 </r>
       <r>    14.9756     1.9717    25.7398 </r>
       <r>    15.0627     1.7866    25.8954 </r>
       <r>    15.1498     1.5788    26.0329 </r>
       <r>    15.2369     1.4608    26.1602 </r>
       <r>    15.3240     1.4474    26.2863 </r>
       <r>    15.4111     1.4930    26.4163 </r>
       <r>    15.4982     1.5257    26.5492 </r>
       <r>    15.5853     1.4454    26.6751 </r>
       <r>    15.6725     1.2292    26.7822 </r>
       <r>    15.7596     1.0105    26.8702 </r>
       <r>    15.8467     0.9213    26.9505 </r>
       <r>    15.9338     0.9186    27.0305 </r>
       <r>    16.0209     0.8821    27.1073 </r>
       <r>    16.1080     0.8064    27.1776 </r>
       <r>    16.1951     0.7614    27.2439 </r>
       <r>    16.2822     0.7441    27.3087 </r>
       <r>    16.3693     0.7107    27.3706 </r>
       <r>    16.4564     0.6605    27.4282 </r>
       <r>    16.5435     0.6074    27.4811 </r>
       <r>    16.6306     0.5444    27.5285 </r>
       <r>    16.7177     0.4787    27.5702 </r>
       <r>    16.8048     0.4420    27.6087 </r>
       <r>    16.8919     0.4399    27.6470 </r>
       <r>    16.9791     0.4354    27.6849 </r>
       <r>    17.0662     0.4061    27.7203 </r>
       <r>    17.1533     0.3832    27.7537 </r>
       <r>    17.2404     0.3749    27.7863 </r>
       <r>    17.3275     0.3361    27.8156 </r>
       <r>    17.4146     0.2741    27.8395 </r>
       <r>    17.5017     0.2383    27.8603 </r>
       <r>    17.5888     0.2204    27.8794 </r>
       <r>    17.6759     0.1960    27.8965 </r>
       <r>    17.7630     0.1750    27.9118 </r>
       <r>    17.8501     0.1599    27.9257 </r>
       <r>    17.9372     0.1412    27.9380 </r>
       <r>    18.0243     0.1195    27.9484 </r>
       <r>    18.1114     0.1020    27.9573 </r>
       <r>    18.1985     0.0936    27.9654 </r>
       <r>    18.2857     0.0871    27.9730 </r>
       <r>    18.3728     0.0721    27.9793 </r>
       <r>    18.4599     0.0546    27.9841 </r>
       <r>    18.5470     0.0446    27.9880 </r>
       <r>    18.6341     0.0384    27.9913 </r>
       <r>    18.7212     0.0312    27.9940 </r>
       <r>    18.8083     0.0245    27.9962 </r>
       <r>    18.8954     0.0193    27.9978 </r>
       <r>    18.9825     0.0141    27.9991 </r>
       <r>    19.0696     0.0084    27.9998 </r>
       <r>    19.1567     0.0032    28.0001 </r>
       <r>    19.2438     0.0001    28.0001 </r>
       <r>    19.3309    -0.0006    28.0000 </r>
       <r>    19.4180    -0.0003    28.0000 </r>
       <r>    19.5051    -0.0001    28.0000 </r>
       <r>    19.5923    -0.0000    28.0000 </r>
       <r>    19.6794    -0.0000    28.0000 </r>
       <r>    19.7665    -0.0000    28.0000 </r>
       <r>    19.8536    -0.0000    28.0000 </r>
       <r>    19.9407    -0.0000    28.0000 </r>
       <r>    20.0278    -0.0000    28.0000 </r>
       <r>    20.1149    -0.0000    28.0000 </r>
       <r>    20.2020    -0.0000    28.0000 </r>
       <r>    20.2891    -0.0000    28.0000 </r>
       <r>    20.3762     0.0000    28.0000 </r>
       <r>    20.4633     0.0000    28.0000 </r>
       <r>    20.5504     0.0000    28.0000 </r>
       <r>    20.6375     0.0000    28.0000 </r>
       <r>    20.7246     0.0000    28.0000 </r>
       <r>    20.8117     0.0000    28.0000 </r>
       <r>    20.8989     0.0000    28.0000 </r>
       <r>    20.9860     0.0000    28.0000 </r>
      </set>
     </set>
    </array>
   </total>
  </dos>
 </calculation>
 <structure name="finalpos" >
  <crystal>
   <varray name="basis" >
    <v>       4.03892969       0.00000000       0.00000000 </v>
    <v>      -0.00000000       4.07911904       0.00000000 </v>
    <v>       0.00000000       0.00000000       4.03892969 </v>
   </varray>
   <i name="volume">     66.54247742 </i>
   <varray name="rec_basis" >
    <v>       0.24759035       0.00000000      -0.00000000 </v>
    <v>       0.00000000       0.24515097      -0.00000000 </v>
    <v>       0.00000000      -0.00000000       0.24759035 </v>
   </varray>
  </crystal>
  <varray name="positions" >
   <v>       0.00000000       0.00000000       0.00000000 </v>
   <v>       0.00000000       0.50000000       0.50000000 </v>
   <v>       0.50000000       0.00000000       0.50000000 </v>
   <v>       0.50000000       0.50000000       0.00000000 </v>
  </varray>
 </structure>
</modeling>
