ITEM: TIMESTEP
0
ITEM: NUMBER OF ATOMS
4
ITEM: BOX BOUNDS xy xz yz pp pp pp
-8.0999977700000003e-02 4.0499988870000001e+00 0.0000000000000000e+00
0.0000000000000000e+00 4.0499988870000001e+00 -8.0999977700000003e-02
0.0000000000000000e+00 4.0491888062000001e+00 0.0000000000000000e+00
ITEM: ATOMS id type xs ys zs fx fy fz
1 1 0 0 0 -1.63227e-10 1.75058e-16 -3.40897e-11
4 1 0.5 0 0.5 1.63227e-10 -8.51099e-18 3.40902e-11
2 1 1 0.5 0.5 1.63226e-10 -1.1315e-16 3.40897e-11
3 1 0.5 0.5 0 -1.63226e-10 -5.33834e-17 -3.40901e-11
ITEM: TIMESTEP
2
ITEM: NUMBER OF ATOMS
4
ITEM: BOX BOUNDS xy xz yz pp pp pp
-8.0999977700000003e-02 4.0499988870000001e+00 0.0000000000000000e+00
0.0000000000000000e+00 4.0499988870000001e+00 -8.0999977700000003e-02
0.0000000000000000e+00 4.0491888062000001e+00 0.0000000000000000e+00
ITEM: ATOMS id type xs ys zs fx fy fz
4 1 0.5 0 0.5 -1.72085e-15 1.07011e-16 -8.34055e-15
3 1 0.5 0.5 0 3.20577e-15 -6.97006e-17 1.06581e-14
1 1 1 6.54633e-18 0 2.74086e-15 -2.45789e-16 8.29892e-15
2 1 1 0.5 0.5 -4.21885e-15 2.08424e-16 -1.06165e-14
