 running   14 mpi-ranks, with    2 threads/rank, on    1 nodes
 distrk:  each k-point on   14 cores,    1 groups
 distr:  one band on    1 cores,   14 groups
 vasp.6.4.2 20Jul23 (build Apr 22 2024 22:35:45) complex                         
 POSCAR found type information on POSCAR Al
 POSCAR found :  1 types and       4 ions
 scaLAPACK will be used
 -----------------------------------------------------------------------------
|                                                                             |
|               ----> ADVICE to this user running VASP <----                  |
|                                                                             |
|     You have a (more or less) 'small supercell' and for smaller cells       |
|     it is recommended to use the reciprocal-space projection scheme!        |
|     The real-space optimization is not efficient for small cells and it     |
|     is also less accurate ...                                               |
|     Therefore, set LREAL=.FALSE. in the INCAR file.                         |
|                                                                             |
 -----------------------------------------------------------------------------

 LDA part: xc-table for Pade appr. of Perdew
 POSCAR, INCAR and KPOINTS ok, starting setup
 FFT: planning ... GRIDC
 FFT: planning ... GRID_SOFT
 FFT: planning ... GRID
 WAVECAR not read
 entering main loop
       N       E                     dE             d eps       ncg     rms          rms(c)
DAV:   1    -0.241389684819E+01   -0.24139E+01   -0.38177E+03 15442   0.522E+02
DAV:   2    -0.150028926479E+02   -0.12589E+02   -0.12190E+02 22694   0.479E+01
DAV:   3    -0.150746263482E+02   -0.71734E-01   -0.71286E-01 20230   0.487E+00
DAV:   4    -0.150747832705E+02   -0.15692E-03   -0.15691E-03 25536   0.226E-01
DAV:   5    -0.150747833609E+02   -0.90461E-07   -0.90576E-07 20412   0.409E-03    0.264E+00
RMM:   6    -0.150223379875E+02    0.52445E-01   -0.52342E-03 15400   0.420E-01    0.155E+00
RMM:   7    -0.149839734912E+02    0.38364E-01   -0.16032E-02 15400   0.703E-01    0.226E-01
RMM:   8    -0.149839425865E+02    0.30905E-04   -0.58595E-04 15400   0.161E-01    0.279E-02
RMM:   9    -0.149839483570E+02   -0.57704E-05   -0.99133E-05 15400   0.694E-02    0.238E-02
RMM:  10    -0.149839492704E+02   -0.91339E-06   -0.21915E-05 15400   0.328E-02    0.230E-02
RMM:  11    -0.149839448825E+02    0.43879E-05   -0.42483E-06 15108   0.126E-02    0.543E-03
RMM:  12    -0.149839447609E+02    0.12156E-06   -0.11341E-06 11403   0.797E-03
   1 F= -.14983945E+02 E0= -.14984531E+02  d E =-.149839E+02
 curvature:   0.00 expect dE= 0.000E+00 dE for cont linesearch  0.000E+00
 trial: gam= 0.00000 g(F)=  0.528E-63 g(S)=  0.000E+00 ort = 0.000E+00 (trialstep = 0.100E+01)
 search vector abs. value=  0.100E-09
 reached required accuracy - stopping structural energy minimisation
