ITEM: TIMESTEP
0
ITEM: NUMBER OF ATOMS
4
ITEM: BOX BOUNDS xy xz yz pp pp pp
0.0000000000000000e+00 3.9963626978000000e+00 0.0000000000000000e+00
0.0000000000000000e+00 4.0369359481000000e+00 0.0000000000000000e+00
0.0000000000000000e+00 4.0369359481000000e+00 0.0000000000000000e+00
ITEM: ATOMS id type xs ys zs fx fy fz
1 1 0 0 0 -1.38778e-17 2.43722e-10 2.43723e-10
4 1 0.5 0 0.5 9.71445e-17 2.43722e-10 -2.43722e-10
3 1 0.5 0.5 0 -2.77556e-17 -2.43722e-10 2.43722e-10
2 1 0 0.5 0.5 -1.38778e-17 -2.43722e-10 -2.43723e-10
ITEM: TIMESTEP
1
ITEM: NUMBER OF ATOMS
4
ITEM: BOX BOUNDS xy xz yz pp pp pp
0.0000000000000000e+00 3.9963626978000000e+00 0.0000000000000000e+00
0.0000000000000000e+00 4.0369359481000000e+00 0.0000000000000000e+00
0.0000000000000000e+00 4.0369359481000000e+00 0.0000000000000000e+00
ITEM: ATOMS id type xs ys zs fx fy fz
1 1 0 6.19282e-12 6.19283e-12 0 -1.81956e-16 -2.41443e-16
4 1 0.5 6.19282e-12 0.5 -2.77556e-17 -1.96878e-16 3.03892e-16
3 1 0.5 0.5 6.19282e-12 4.16334e-17 2.83519e-16 -3.92993e-16
2 1 0 0.5 0.5 -2.77556e-17 1.70653e-16 3.50997e-16
