
4 atoms
1 atom types
   0.0000000000    4.4058831631 xlo xhi
   0.0000000000    4.4058831631 ylo yhi
   0.0000000000    4.4058831631 zlo zhi
  -0.0000000000   -0.0000000000   -0.0000000000 xy xz yz

Atoms # atomic

     1      1    0.0000000000    0.0000000000    0.0000000000
     2      1    0.0000000000    2.2029415816    2.2029415816
     3      1    2.2029415816    2.2029415816    0.0000000000
     4      1    2.2029415816    0.0000000000    2.2029415816
