ITEM: TIMESTEP
0
ITEM: NUMBER OF ATOMS
4
ITEM: BOX BOUNDS xy xz yz pp pp pp
0.0000000000000000e+00 4.4058831631000004e+00 -0.0000000000000000e+00
0.0000000000000000e+00 4.4058831631000004e+00 -0.0000000000000000e+00
0.0000000000000000e+00 4.4058831631000004e+00 -0.0000000000000000e+00
ITEM: ATOMS id type xs ys zs fx fy fz
1 1 0 0 0 6.20348e-11 6.20347e-11 6.20347e-11
4 1 0.5 0 0.5 -6.20348e-11 6.20347e-11 -6.20347e-11
3 1 0.5 0.5 0 -6.20347e-11 -6.20347e-11 6.20346e-11
2 1 0 0.5 0.5 6.20347e-11 -6.20347e-11 -6.20346e-11
ITEM: TIMESTEP
1
ITEM: NUMBER OF ATOMS
4
ITEM: BOX BOUNDS xy xz yz pp pp pp
0.0000000000000000e+00 4.4058831631000004e+00 -0.0000000000000000e+00
0.0000000000000000e+00 4.4058831631000004e+00 -0.0000000000000000e+00
0.0000000000000000e+00 4.4058831631000004e+00 -0.0000000000000000e+00
ITEM: ATOMS id type xs ys zs fx fy fz
1 1 5.67424e-12 5.67423e-12 5.67423e-12 5.55112e-17 2.84847e-16 4.36351e-16
4 1 0.5 5.67422e-12 0.5 -1.31839e-16 3.14121e-16 -3.41185e-16
3 1 0.5 0.5 5.67422e-12 -6.93889e-18 -1.5233e-16 3.19948e-16
2 1 5.67422e-12 0.5 0.5 5.55112e-17 -4.83825e-16 -3.46443e-16
