
4 atoms
1 atom types
   0.0000000000    4.2294556197 xlo xhi
   0.0000000000    4.2294556197 ylo yhi
   0.0000000000    4.2294556197 zlo zhi
  -0.0000000000   -0.0000000000   -0.0000000000 xy xz yz

Atoms # atomic

     1      1    0.0000000000    0.0000000000    0.0000000000
     2      1    0.0000000000    2.1147278099    2.1147278099
     3      1    2.1147278099    2.1147278099    0.0000000000
     4      1    2.1147278099    0.0000000000    2.1147278099
