ITEM: TIMESTEP
0
ITEM: NUMBER OF ATOMS
4
ITEM: BOX BOUNDS xy xz yz pp pp pp
0.0000000000000000e+00 4.2294556197000004e+00 -0.0000000000000000e+00
0.0000000000000000e+00 4.2294556197000004e+00 -0.0000000000000000e+00
0.0000000000000000e+00 4.2294556197000004e+00 -0.0000000000000000e+00
ITEM: ATOMS id type xs ys zs fx fy fz
1 1 0 0 0 1.2709e-10 1.2709e-10 1.2709e-10
4 1 0.5 0 0.5 -1.2709e-10 1.2709e-10 -1.2709e-10
3 1 0.5 0.5 0 -1.2709e-10 -1.2709e-10 1.27089e-10
2 1 0 0.5 0.5 1.2709e-10 -1.2709e-10 -1.2709e-10
ITEM: TIMESTEP
1
ITEM: NUMBER OF ATOMS
4
ITEM: BOX BOUNDS xy xz yz pp pp pp
0.0000000000000000e+00 4.2294556197000004e+00 -0.0000000000000000e+00
0.0000000000000000e+00 4.2294556197000004e+00 -0.0000000000000000e+00
0.0000000000000000e+00 4.2294556197000004e+00 -0.0000000000000000e+00
ITEM: ATOMS id type xs ys zs fx fy fz
1 1 5.91097e-12 5.91097e-12 5.91097e-12 -4.44089e-16 -6.11165e-16 -5.13586e-16
4 1 0.5 5.91096e-12 0.5 1.38778e-16 8.83084e-17 2.61013e-16
3 1 0.5 0.5 5.91095e-12 1.31839e-16 2.73978e-16 3.28506e-17
2 1 5.91096e-12 0.5 0.5 1.66533e-16 2.601e-16 2.30737e-16
