ITEM: TIMESTEP
0
ITEM: NUMBER OF ATOMS
4
ITEM: BOX BOUNDS xy xz yz pp pp pp
0.0000000000000000e+00 4.0296980128000000e+00 0.0000000000000000e+00
0.0000000000000000e+00 4.0499988870000001e+00 0.0000000000000000e+00
0.0000000000000000e+00 4.0499988870000001e+00 0.0000000000000000e+00
ITEM: ATOMS id type xs ys zs fx fy fz
1 1 0 0 0 0 0 1.11022e-16
4 1 0.5 0 0.5 1.15499e-18 0 -3.1572e-16
3 1 0.5 0.5 0 1.15499e-18 0 1.12757e-16
2 1 0 0.5 0.5 0 0 9.54098e-17
ITEM: TIMESTEP
1
ITEM: NUMBER OF ATOMS
4
ITEM: BOX BOUNDS xy xz yz pp pp pp
0.0000000000000000e+00 4.0296980128000000e+00 0.0000000000000000e+00
0.0000000000000000e+00 4.0499988870000001e+00 0.0000000000000000e+00
0.0000000000000000e+00 4.0499988870000001e+00 0.0000000000000000e+00
ITEM: ATOMS id type xs ys zs fx fy fz
1 1 0 0 0 0 0 1.11022e-16
4 1 0.5 0 0.5 1.15499e-18 0 -3.1572e-16
3 1 0.5 0.5 0 1.15499e-18 0 1.12757e-16
2 1 0 0.5 0.5 0 0 9.54098e-17
