
6 atoms
1 atom types
   0.0000000000    2.8510545415 xlo xhi
   0.0000000000    2.8510545415 ylo yhi
   0.0000000000   24.1919999979 zlo zhi
  -0.0000000000    0.0100000000    0.0000000000 xy xz yz

Atoms # atomic

     1      1    0.0087500000    0.0000000000   21.1679999982
     2      1    1.4351106041    1.4255272707   23.1839999980
     3      1    0.0070833334    0.0000000000   17.1359999985
     4      1    1.4334439374    1.4255272707   19.1519999984
     5      1    0.0054166667    0.0000000000   13.1039999989
     6      1    1.4317772708    1.4255272707   15.1199999987
