ITEM: TIMESTEP
0
ITEM: NUMBER OF ATOMS
6
ITEM: BOX BOUNDS xy xz yz pp pp pp
0.0000000000000000e+00 2.8610545414999997e+00 -0.0000000000000000e+00
0.0000000000000000e+00 2.8510545414999999e+00 1.0000000000000000e-02
0.0000000000000000e+00 2.4191999997900002e+01 0.0000000000000000e+00
ITEM: ATOMS id type xs ys zs fx fy fz
5 1 1.16861e-11 0 0.541667 0.000955041 -5.71293e-11 0.143718
6 1 0.5 0.5 0.625 -2.67183e-05 1.12581e-10 -0.0776026
3 1 2.3385e-11 0 0.708333 -3.67863e-06 -1.10782e-10 -0.0564107
4 1 0.5 0.5 0.791667 3.67863e-06 1.10782e-10 0.0564107
1 1 1 0 0.875 2.67183e-05 -1.12582e-10 0.0776026
2 1 0.5 0.5 0.958333 -0.000955041 5.71295e-11 -0.143718
