
8 atoms
1 atom types
   0.0000000000    2.8545447841 xlo xhi
   0.0000000000    4.0369359481 ylo yhi
   0.0000000000   22.8363582730 zlo zhi
  -0.0000000000    0.0100000000    0.0000000000 xy xz yz

Atoms # atomic

     1      1    2.1418460881    0.0000000000    2.1409085881
     2      1    0.7139486961    2.0184679740    0.7136361960
     3      1    2.1430960881    0.0000000000    4.9954533722
     4      1    0.7151986961    2.0184679740    3.5681809802
     5      1    2.1443460881    0.0000000000    7.8499981564
     6      1    0.7164486961    2.0184679740    6.4227257643
     7      1    2.1455960881    0.0000000000   10.7045429405
     8      1    0.7176986961    2.0184679740    9.2772705484
