ITEM: TIMESTEP
0
ITEM: NUMBER OF ATOMS
8
ITEM: BOX BOUNDS xy xz yz pp pp pp
0.0000000000000000e+00 2.8645447840999996e+00 -0.0000000000000000e+00
0.0000000000000000e+00 4.0369359481000000e+00 1.0000000000000000e-02
0.0000000000000000e+00 2.2836358272999998e+01 0.0000000000000000e+00
ITEM: ATOMS id type xs ys zs fx fy fz
1 1 0.75 0 0.09375 8.5856e-05 -2.5025e-10 -0.229969
2 1 0.25 0.5 0.03125 0.000747666 1.2932e-10 0.107384
3 1 0.75 0 0.21875 2.28196e-05 -2.38404e-10 -0.021435
4 1 0.25 0.5 0.15625 0.000231176 2.40286e-10 0.0875283
6 1 0.25 0.5 0.28125 -2.28196e-05 2.38404e-10 0.021435
5 1 0.75 0 0.34375 -0.000231176 -2.40287e-10 -0.0875283
8 1 0.25 0.5 0.40625 -8.5856e-05 2.5025e-10 0.229969
7 1 0.75 0 0.46875 -0.000747666 -1.2932e-10 -0.107384
