ITEM: TIMESTEP
0
ITEM: NUMBER OF ATOMS
4
ITEM: BOX BOUNDS xy xz yz pp pp pp
0.0000000000000000e+00 4.0499988870000001e+00 0.0000000000000000e+00
0.0000000000000000e+00 4.1309988647000004e+00 0.0000000000000000e+00
0.0000000000000000e+00 4.0491888062000001e+00 8.0999977700000003e-02
ITEM: ATOMS id type xs ys zs fx fy fz
1 1 0 0 0 0 1.63224e-10 -3.40893e-11
2 1 0 0.5 0.5 0 -1.63223e-10 3.40891e-11
4 1 0.5 1.23457e-11 0.5 0 -1.63228e-10 3.40898e-11
3 1 0.5 0.5 0 0 1.63228e-10 -3.40896e-11
ITEM: TIMESTEP
2
ITEM: NUMBER OF ATOMS
4
ITEM: BOX BOUNDS xy xz yz pp pp pp
0.0000000000000000e+00 4.0499988870000001e+00 0.0000000000000000e+00
0.0000000000000000e+00 4.1309988647000004e+00 0.0000000000000000e+00
0.0000000000000000e+00 4.0491888062000001e+00 8.0999977700000003e-02
ITEM: ATOMS id type xs ys zs fx fy fz
1 1 0 6.17286e-12 0 -1.5973e-16 2.39132e-15 9.54098e-15
2 1 0 0.5 0.5 1.04219e-16 -3.41394e-15 -9.53404e-15
4 1 0.5 6.17262e-12 0.5 7.64634e-17 8.0682e-15 -9.14546e-15
3 1 0.5 0.5 0 -2.09793e-17 -7.05208e-15 9.13852e-15
