
4 atoms
1 atom types
   0.0000000000    4.0902983759 xlo xhi
   0.0000000000    4.0499988870 ylo yhi
   0.0000000000    4.0499988870 zlo zhi
   0.0000000000    0.0000000000    0.0000000000 xy xz yz

Atoms # atomic

     1      1    0.0000000000    0.0000000000    0.0000000000
     2      1    0.0000000000    2.0249994435    2.0249994435
     3      1    2.0451491880    2.0249994435    0.0000000000
     4      1    2.0451491880    0.0000000000    2.0249994435
