ITEM: TIMESTEP
0
ITEM: NUMBER OF ATOMS
4
ITEM: BOX BOUNDS xy xz yz pp pp pp
0.0000000000000000e+00 4.0902983758999998e+00 0.0000000000000000e+00
0.0000000000000000e+00 4.0499988870000001e+00 0.0000000000000000e+00
0.0000000000000000e+00 4.0499988870000001e+00 0.0000000000000000e+00
ITEM: ATOMS id type xs ys zs fx fy fz
1 1 0 0 0 7.27481e-10 6.93889e-17 3.40006e-16
2 1 0 0.5 0.5 7.27482e-10 -1.11022e-16 2.22045e-16
3 1 0.5 0.5 0 -7.27481e-10 -4.16334e-17 -4.89192e-16
4 1 0.5 0 0.5 -7.27481e-10 8.32667e-17 -6.93889e-17
ITEM: TIMESTEP
1
ITEM: NUMBER OF ATOMS
4
ITEM: BOX BOUNDS xy xz yz pp pp pp
0.0000000000000000e+00 4.0902983758999998e+00 0.0000000000000000e+00
0.0000000000000000e+00 4.0499988870000001e+00 0.0000000000000000e+00
0.0000000000000000e+00 4.0499988870000001e+00 0.0000000000000000e+00
ITEM: ATOMS id type xs ys zs fx fy fz
1 1 6.11211e-12 5.88789e-19 2.88507e-18 0 -7.80626e-17 1.31839e-16
2 1 6.11211e-12 0.5 0.5 0 1.2837e-16 -8.32667e-17
3 1 0.5 0.5 0 0 -1.97537e-17 -2.42861e-17
4 1 0.5 7.06547e-19 0.5 0 -3.1225e-17 -2.77556e-17
