ITEM: TIMESTEP
0
ITEM: NUMBER OF ATOMS
4
ITEM: BOX BOUNDS xy xz yz pp pp pp
0.0000000000000000e+00 4.1309988647000004e+00 0.0000000000000000e+00
0.0000000000000000e+00 4.0499988870000001e+00 8.0999977700000003e-02
0.0000000000000000e+00 4.0491888062000001e+00 0.0000000000000000e+00
ITEM: ATOMS id type xs ys zs fx fy fz
1 1 0 0 0 1.63224e-10 8.93247e-17 -3.40893e-11
2 1 1.23457e-11 0.5 0.5 -1.63228e-10 -2.74574e-17 3.40906e-11
4 1 0.5 0 0.5 -1.63224e-10 4.94261e-17 3.40892e-11
3 1 0.5 0.5 0 1.63228e-10 -1.1132e-16 -3.40904e-11
ITEM: TIMESTEP
2
ITEM: NUMBER OF ATOMS
4
ITEM: BOX BOUNDS xy xz yz pp pp pp
0.0000000000000000e+00 4.1309988647000004e+00 0.0000000000000000e+00
0.0000000000000000e+00 4.0499988870000001e+00 8.0999977700000003e-02
0.0000000000000000e+00 4.0491888062000001e+00 0.0000000000000000e+00
ITEM: ATOMS id type xs ys zs fx fy fz
1 1 6.17284e-12 1.92006e-17 0 -1.23512e-15 -2.292e-16 4.19109e-15
2 1 6.17262e-12 0.5 0.5 4.63518e-15 2.42292e-16 -5.00294e-15
4 1 0.5 5.01916e-18 0.5 -7.97973e-16 1.18181e-16 -2.37657e-15
3 1 0.5 0.5 0 -2.60209e-15 -1.31283e-16 3.19189e-15
