 running   14 mpi-ranks, with    2 threads/rank, on    1 nodes
 distrk:  each k-point on   14 cores,    1 groups
 distr:  one band on    1 cores,   14 groups
 vasp.6.4.2 20Jul23 (build Apr 22 2024 22:35:45) complex                         
 POSCAR found type information on POSCAR Al
 POSCAR found :  1 types and       4 ions
 scaLAPACK will be used
 -----------------------------------------------------------------------------
|                                                                             |
|               ----> ADVICE to this user running VASP <----                  |
|                                                                             |
|     You have a (more or less) 'small supercell' and for smaller cells       |
|     it is recommended to use the reciprocal-space projection scheme!        |
|     The real-space optimization is not efficient for small cells and it     |
|     is also less accurate ...                                               |
|     Therefore, set LREAL=.FALSE. in the INCAR file.                         |
|                                                                             |
 -----------------------------------------------------------------------------

 LDA part: xc-table for Pade appr. of Perdew
 POSCAR, INCAR and KPOINTS ok, starting setup
 FFT: planning ... GRIDC
 FFT: planning ... GRID_SOFT
 FFT: planning ... GRID
 WAVECAR not read
 entering main loop
       N       E                     dE             d eps       ncg     rms          rms(c)
DAV:   1    -0.182794093521E+01   -0.18279E+01   -0.39257E+03  8064   0.529E+02
DAV:   2    -0.148167955709E+02   -0.12989E+02   -0.12611E+02 11844   0.500E+01
DAV:   3    -0.148857072341E+02   -0.68912E-01   -0.68663E-01 10486   0.488E+00
DAV:   4    -0.148858565024E+02   -0.14927E-03   -0.14927E-03 13244   0.220E-01
DAV:   5    -0.148858565905E+02   -0.88056E-07   -0.88719E-07 10570   0.383E-03    0.301E+00
RMM:   6    -0.148279475412E+02    0.57909E-01   -0.37966E-03  8008   0.356E-01    0.177E+00
RMM:   7    -0.147859242181E+02    0.42023E-01   -0.12121E-02  8008   0.607E-01    0.239E-01
RMM:   8    -0.147858938139E+02    0.30404E-04   -0.70275E-04  8008   0.174E-01    0.282E-02
RMM:   9    -0.147858996335E+02   -0.58196E-05   -0.10102E-04  8008   0.730E-02    0.267E-02
RMM:  10    -0.147858987831E+02    0.85042E-06   -0.21297E-05  8008   0.308E-02    0.530E-02
RMM:  11    -0.147858969080E+02    0.18751E-05   -0.33703E-06  7532   0.122E-02    0.163E-02
RMM:  12    -0.147858964804E+02    0.42759E-06   -0.83556E-07  5725   0.662E-03
   1 F= -.14785896E+02 E0= -.14785557E+02  d E =-.147859E+02
 curvature:   0.00 expect dE= 0.000E+00 dE for cont linesearch  0.000E+00
 trial: gam= 0.00000 g(F)=  0.817E-63 g(S)=  0.121E-31 ort = 0.000E+00 (trialstep = 0.100E+01)
 search vector abs. value=  0.100E-09
 reached required accuracy - stopping structural energy minimisation
