<?xml version="1.0" encoding="ISO-8859-1"?>
<modeling>
 <generator>
  <i name="program" type="string">vasp </i>
  <i name="version" type="string">6.4.2  </i>
  <i name="subversion" type="string">20Jul23 (build Apr 22 2024 22:35:45) complex                          parallel </i>
  <i name="platform" type="string">LinuxGNU </i>
  <i name="date" type="string">2024 05 26 </i>
  <i name="time" type="string">15:46:05 </i>
 </generator>
 <incar>
  <i type="string" name="SYSTEM">Al fcc relaxation</i>
  <i type="string" name="PREC">Accurate</i>
  <i type="string" name="ALGO">Fast</i>
  <i type="int" name="NELM">    60</i>
  <i type="int" name="NELMIN">     4</i>
  <i type="int" name="IBRION">     2</i>
  <i name="EDIFF">      0.00000100</i>
  <i type="int" name="NSW">   100</i>
  <i type="int" name="ISIF">     4</i>
  <i name="ENCUT">    400.00000000</i>
  <i type="string" name="LREAL">Auto</i>
  <i type="int" name="ISMEAR">     1</i>
  <i name="SIGMA">      0.20000000</i>
  <i name="KSPACING">      0.08000000</i>
  <i type="logical" name="LWAVE"> F  </i>
  <i type="logical" name="LCHARG"> F  </i>
 </incar>
 <primitive_cell>
  <structure name="primitive_cell" >
   <crystal>
    <varray name="basis" >
     <v>       1.94977187      -1.94977187       0.00000000 </v>
     <v>       1.94977187       0.00000000       1.94977187 </v>
     <v>       0.00000000      -1.94977187       1.94977187 </v>
    </varray>
    <i name="volume">     14.82454587 </i>
    <varray name="rec_basis" >
     <v>       0.25644026      -0.25644026      -0.25644026 </v>
     <v>       0.25644026       0.25644026       0.25644026 </v>
     <v>      -0.25644026      -0.25644026       0.25644026 </v>
    </varray>
   </crystal>
   <varray name="positions" >
    <v>       0.00000000       0.00000000       0.00000000 </v>
   </varray>
  </structure>
  <varray name="primitive_index" >
   <v type="int" >        1 </v>
  </varray>
 </primitive_cell>
 <kpoints>
  <generation param="Monkhorst-Pack">
   <v type="int" name="divisions">      21       21       21 </v>
   <v name="usershift">      0.00000000       0.00000000       0.00000000 </v>
   <v name="genvec1">      0.04761905       0.00000000       0.00000000 </v>
   <v name="genvec2">      0.00000000       0.04761905       0.00000000 </v>
   <v name="genvec3">     -0.00000000      -0.00000000       0.04761905 </v>
   <v name="shift">      0.00000000       0.00000000       0.00000000 </v>
  </generation>
  <varray name="kpointlist" >
   <v>       0.00000000       0.00000000       0.00000000 </v>
   <v>       0.04761905       0.00000000       0.00000000 </v>
   <v>       0.09523810       0.00000000       0.00000000 </v>
   <v>       0.14285714       0.00000000       0.00000000 </v>
   <v>       0.19047619       0.00000000       0.00000000 </v>
   <v>       0.23809524       0.00000000       0.00000000 </v>
   <v>       0.28571429       0.00000000       0.00000000 </v>
   <v>       0.33333333       0.00000000       0.00000000 </v>
   <v>       0.38095238       0.00000000       0.00000000 </v>
   <v>       0.42857143       0.00000000       0.00000000 </v>
   <v>       0.47619048       0.00000000       0.00000000 </v>
   <v>       0.04761905       0.04761905       0.00000000 </v>
   <v>       0.09523810       0.04761905       0.00000000 </v>
   <v>       0.14285714       0.04761905       0.00000000 </v>
   <v>       0.19047619       0.04761905       0.00000000 </v>
   <v>       0.23809524       0.04761905       0.00000000 </v>
   <v>       0.28571429       0.04761905       0.00000000 </v>
   <v>       0.33333333       0.04761905       0.00000000 </v>
   <v>       0.38095238       0.04761905       0.00000000 </v>
   <v>       0.42857143       0.04761905       0.00000000 </v>
   <v>       0.47619048       0.04761905       0.00000000 </v>
   <v>       0.09523810       0.09523810       0.00000000 </v>
   <v>       0.14285714       0.09523810       0.00000000 </v>
   <v>       0.19047619       0.09523810       0.00000000 </v>
   <v>       0.23809524       0.09523810       0.00000000 </v>
   <v>       0.28571429       0.09523810       0.00000000 </v>
   <v>       0.33333333       0.09523810       0.00000000 </v>
   <v>       0.38095238       0.09523810       0.00000000 </v>
   <v>       0.42857143       0.09523810       0.00000000 </v>
   <v>       0.47619048       0.09523810       0.00000000 </v>
   <v>       0.14285714       0.14285714       0.00000000 </v>
   <v>       0.19047619       0.14285714       0.00000000 </v>
   <v>       0.23809524       0.14285714       0.00000000 </v>
   <v>       0.28571429       0.14285714       0.00000000 </v>
   <v>       0.33333333       0.14285714       0.00000000 </v>
   <v>       0.38095238       0.14285714       0.00000000 </v>
   <v>       0.42857143       0.14285714       0.00000000 </v>
   <v>       0.47619048       0.14285714       0.00000000 </v>
   <v>       0.19047619       0.19047619       0.00000000 </v>
   <v>       0.23809524       0.19047619       0.00000000 </v>
   <v>       0.28571429       0.19047619       0.00000000 </v>
   <v>       0.33333333       0.19047619       0.00000000 </v>
   <v>       0.38095238       0.19047619       0.00000000 </v>
   <v>       0.42857143       0.19047619       0.00000000 </v>
   <v>       0.47619048       0.19047619       0.00000000 </v>
   <v>       0.23809524       0.23809524       0.00000000 </v>
   <v>       0.28571429       0.23809524       0.00000000 </v>
   <v>       0.33333333       0.23809524       0.00000000 </v>
   <v>       0.38095238       0.23809524       0.00000000 </v>
   <v>       0.42857143       0.23809524       0.00000000 </v>
   <v>       0.47619048       0.23809524       0.00000000 </v>
   <v>       0.28571429       0.28571429       0.00000000 </v>
   <v>       0.33333333       0.28571429       0.00000000 </v>
   <v>       0.38095238       0.28571429       0.00000000 </v>
   <v>       0.42857143       0.28571429       0.00000000 </v>
   <v>       0.47619048       0.28571429       0.00000000 </v>
   <v>       0.33333333       0.33333333       0.00000000 </v>
   <v>       0.38095238       0.33333333       0.00000000 </v>
   <v>       0.42857143       0.33333333       0.00000000 </v>
   <v>       0.47619048       0.33333333       0.00000000 </v>
   <v>       0.38095238       0.38095238       0.00000000 </v>
   <v>       0.42857143       0.38095238       0.00000000 </v>
   <v>       0.47619048       0.38095238       0.00000000 </v>
   <v>       0.42857143       0.42857143       0.00000000 </v>
   <v>       0.47619048       0.42857143       0.00000000 </v>
   <v>       0.47619048       0.47619048       0.00000000 </v>
   <v>       0.04761905       0.04761905       0.04761905 </v>
   <v>       0.09523810       0.04761905       0.04761905 </v>
   <v>       0.14285714       0.04761905       0.04761905 </v>
   <v>       0.19047619       0.04761905       0.04761905 </v>
   <v>       0.23809524       0.04761905       0.04761905 </v>
   <v>       0.28571429       0.04761905       0.04761905 </v>
   <v>       0.33333333       0.04761905       0.04761905 </v>
   <v>       0.38095238       0.04761905       0.04761905 </v>
   <v>       0.42857143       0.04761905       0.04761905 </v>
   <v>       0.47619048       0.04761905       0.04761905 </v>
   <v>       0.09523810       0.09523810       0.04761905 </v>
   <v>       0.14285714       0.09523810       0.04761905 </v>
   <v>       0.19047619       0.09523810       0.04761905 </v>
   <v>       0.23809524       0.09523810       0.04761905 </v>
   <v>       0.28571429       0.09523810       0.04761905 </v>
   <v>       0.33333333       0.09523810       0.04761905 </v>
   <v>       0.38095238       0.09523810       0.04761905 </v>
   <v>       0.42857143       0.09523810       0.04761905 </v>
   <v>       0.47619048       0.09523810       0.04761905 </v>
   <v>       0.14285714       0.14285714       0.04761905 </v>
   <v>       0.19047619       0.14285714       0.04761905 </v>
   <v>       0.23809524       0.14285714       0.04761905 </v>
   <v>       0.28571429       0.14285714       0.04761905 </v>
   <v>       0.33333333       0.14285714       0.04761905 </v>
   <v>       0.38095238       0.14285714       0.04761905 </v>
   <v>       0.42857143       0.14285714       0.04761905 </v>
   <v>       0.47619048       0.14285714       0.04761905 </v>
   <v>       0.19047619       0.19047619       0.04761905 </v>
   <v>       0.23809524       0.19047619       0.04761905 </v>
   <v>       0.28571429       0.19047619       0.04761905 </v>
   <v>       0.33333333       0.19047619       0.04761905 </v>
   <v>       0.38095238       0.19047619       0.04761905 </v>
   <v>       0.42857143       0.19047619       0.04761905 </v>
   <v>       0.47619048       0.19047619       0.04761905 </v>
   <v>       0.23809524       0.23809524       0.04761905 </v>
   <v>       0.28571429       0.23809524       0.04761905 </v>
   <v>       0.33333333       0.23809524       0.04761905 </v>
   <v>       0.38095238       0.23809524       0.04761905 </v>
   <v>       0.42857143       0.23809524       0.04761905 </v>
   <v>       0.47619048       0.23809524       0.04761905 </v>
   <v>       0.28571429       0.28571429       0.04761905 </v>
   <v>       0.33333333       0.28571429       0.04761905 </v>
   <v>       0.38095238       0.28571429       0.04761905 </v>
   <v>       0.42857143       0.28571429       0.04761905 </v>
   <v>       0.47619048       0.28571429       0.04761905 </v>
   <v>       0.33333333       0.33333333       0.04761905 </v>
   <v>       0.38095238       0.33333333       0.04761905 </v>
   <v>       0.42857143       0.33333333       0.04761905 </v>
   <v>       0.47619048       0.33333333       0.04761905 </v>
   <v>       0.38095238       0.38095238       0.04761905 </v>
   <v>       0.42857143       0.38095238       0.04761905 </v>
   <v>       0.47619048       0.38095238       0.04761905 </v>
   <v>       0.42857143       0.42857143       0.04761905 </v>
   <v>       0.47619048       0.42857143       0.04761905 </v>
   <v>       0.47619048       0.47619048       0.04761905 </v>
   <v>       0.09523810       0.09523810       0.09523810 </v>
   <v>       0.14285714       0.09523810       0.09523810 </v>
   <v>       0.19047619       0.09523810       0.09523810 </v>
   <v>       0.23809524       0.09523810       0.09523810 </v>
   <v>       0.28571429       0.09523810       0.09523810 </v>
   <v>       0.33333333       0.09523810       0.09523810 </v>
   <v>       0.38095238       0.09523810       0.09523810 </v>
   <v>       0.42857143       0.09523810       0.09523810 </v>
   <v>       0.47619048       0.09523810       0.09523810 </v>
   <v>       0.14285714       0.14285714       0.09523810 </v>
   <v>       0.19047619       0.14285714       0.09523810 </v>
   <v>       0.23809524       0.14285714       0.09523810 </v>
   <v>       0.28571429       0.14285714       0.09523810 </v>
   <v>       0.33333333       0.14285714       0.09523810 </v>
   <v>       0.38095238       0.14285714       0.09523810 </v>
   <v>       0.42857143       0.14285714       0.09523810 </v>
   <v>       0.47619048       0.14285714       0.09523810 </v>
   <v>       0.19047619       0.19047619       0.09523810 </v>
   <v>       0.23809524       0.19047619       0.09523810 </v>
   <v>       0.28571429       0.19047619       0.09523810 </v>
   <v>       0.33333333       0.19047619       0.09523810 </v>
   <v>       0.38095238       0.19047619       0.09523810 </v>
   <v>       0.42857143       0.19047619       0.09523810 </v>
   <v>       0.47619048       0.19047619       0.09523810 </v>
   <v>       0.23809524       0.23809524       0.09523810 </v>
   <v>       0.28571429       0.23809524       0.09523810 </v>
   <v>       0.33333333       0.23809524       0.09523810 </v>
   <v>       0.38095238       0.23809524       0.09523810 </v>
   <v>       0.42857143       0.23809524       0.09523810 </v>
   <v>       0.47619048       0.23809524       0.09523810 </v>
   <v>       0.28571429       0.28571429       0.09523810 </v>
   <v>       0.33333333       0.28571429       0.09523810 </v>
   <v>       0.38095238       0.28571429       0.09523810 </v>
   <v>       0.42857143       0.28571429       0.09523810 </v>
   <v>       0.47619048       0.28571429       0.09523810 </v>
   <v>       0.33333333       0.33333333       0.09523810 </v>
   <v>       0.38095238       0.33333333       0.09523810 </v>
   <v>       0.42857143       0.33333333       0.09523810 </v>
   <v>       0.47619048       0.33333333       0.09523810 </v>
   <v>       0.38095238       0.38095238       0.09523810 </v>
   <v>       0.42857143       0.38095238       0.09523810 </v>
   <v>       0.47619048       0.38095238       0.09523810 </v>
   <v>       0.42857143       0.42857143       0.09523810 </v>
   <v>       0.47619048       0.42857143       0.09523810 </v>
   <v>       0.47619048       0.47619048       0.09523810 </v>
   <v>       0.14285714       0.14285714       0.14285714 </v>
   <v>       0.19047619       0.14285714       0.14285714 </v>
   <v>       0.23809524       0.14285714       0.14285714 </v>
   <v>       0.28571429       0.14285714       0.14285714 </v>
   <v>       0.33333333       0.14285714       0.14285714 </v>
   <v>       0.38095238       0.14285714       0.14285714 </v>
   <v>       0.42857143       0.14285714       0.14285714 </v>
   <v>       0.47619048       0.14285714       0.14285714 </v>
   <v>       0.19047619       0.19047619       0.14285714 </v>
   <v>       0.23809524       0.19047619       0.14285714 </v>
   <v>       0.28571429       0.19047619       0.14285714 </v>
   <v>       0.33333333       0.19047619       0.14285714 </v>
   <v>       0.38095238       0.19047619       0.14285714 </v>
   <v>       0.42857143       0.19047619       0.14285714 </v>
   <v>       0.47619048       0.19047619       0.14285714 </v>
   <v>       0.23809524       0.23809524       0.14285714 </v>
   <v>       0.28571429       0.23809524       0.14285714 </v>
   <v>       0.33333333       0.23809524       0.14285714 </v>
   <v>       0.38095238       0.23809524       0.14285714 </v>
   <v>       0.42857143       0.23809524       0.14285714 </v>
   <v>       0.47619048       0.23809524       0.14285714 </v>
   <v>       0.28571429       0.28571429       0.14285714 </v>
   <v>       0.33333333       0.28571429       0.14285714 </v>
   <v>       0.38095238       0.28571429       0.14285714 </v>
   <v>       0.42857143       0.28571429       0.14285714 </v>
   <v>       0.47619048       0.28571429       0.14285714 </v>
   <v>       0.33333333       0.33333333       0.14285714 </v>
   <v>       0.38095238       0.33333333       0.14285714 </v>
   <v>       0.42857143       0.33333333       0.14285714 </v>
   <v>       0.47619048       0.33333333       0.14285714 </v>
   <v>       0.38095238       0.38095238       0.14285714 </v>
   <v>       0.42857143       0.38095238       0.14285714 </v>
   <v>       0.47619048       0.38095238       0.14285714 </v>
   <v>       0.42857143       0.42857143       0.14285714 </v>
   <v>       0.47619048       0.42857143       0.14285714 </v>
   <v>       0.47619048       0.47619048       0.14285714 </v>
   <v>       0.19047619       0.19047619       0.19047619 </v>
   <v>       0.23809524       0.19047619       0.19047619 </v>
   <v>       0.28571429       0.19047619       0.19047619 </v>
   <v>       0.33333333       0.19047619       0.19047619 </v>
   <v>       0.38095238       0.19047619       0.19047619 </v>
   <v>       0.42857143       0.19047619       0.19047619 </v>
   <v>       0.47619048       0.19047619       0.19047619 </v>
   <v>       0.23809524       0.23809524       0.19047619 </v>
   <v>       0.28571429       0.23809524       0.19047619 </v>
   <v>       0.33333333       0.23809524       0.19047619 </v>
   <v>       0.38095238       0.23809524       0.19047619 </v>
   <v>       0.42857143       0.23809524       0.19047619 </v>
   <v>       0.47619048       0.23809524       0.19047619 </v>
   <v>       0.28571429       0.28571429       0.19047619 </v>
   <v>       0.33333333       0.28571429       0.19047619 </v>
   <v>       0.38095238       0.28571429       0.19047619 </v>
   <v>       0.42857143       0.28571429       0.19047619 </v>
   <v>       0.47619048       0.28571429       0.19047619 </v>
   <v>       0.33333333       0.33333333       0.19047619 </v>
   <v>       0.38095238       0.33333333       0.19047619 </v>
   <v>       0.42857143       0.33333333       0.19047619 </v>
   <v>       0.47619048       0.33333333       0.19047619 </v>
   <v>       0.38095238       0.38095238       0.19047619 </v>
   <v>       0.42857143       0.38095238       0.19047619 </v>
   <v>       0.47619048       0.38095238       0.19047619 </v>
   <v>       0.42857143       0.42857143       0.19047619 </v>
   <v>       0.47619048       0.42857143       0.19047619 </v>
   <v>       0.47619048       0.47619048       0.19047619 </v>
   <v>       0.23809524       0.23809524       0.23809524 </v>
   <v>       0.28571429       0.23809524       0.23809524 </v>
   <v>       0.33333333       0.23809524       0.23809524 </v>
   <v>       0.38095238       0.23809524       0.23809524 </v>
   <v>       0.42857143       0.23809524       0.23809524 </v>
   <v>       0.47619048       0.23809524       0.23809524 </v>
   <v>       0.28571429       0.28571429       0.23809524 </v>
   <v>       0.33333333       0.28571429       0.23809524 </v>
   <v>       0.38095238       0.28571429       0.23809524 </v>
   <v>       0.42857143       0.28571429       0.23809524 </v>
   <v>       0.47619048       0.28571429       0.23809524 </v>
   <v>       0.33333333       0.33333333       0.23809524 </v>
   <v>       0.38095238       0.33333333       0.23809524 </v>
   <v>       0.42857143       0.33333333       0.23809524 </v>
   <v>       0.47619048       0.33333333       0.23809524 </v>
   <v>       0.38095238       0.38095238       0.23809524 </v>
   <v>       0.42857143       0.38095238       0.23809524 </v>
   <v>       0.47619048       0.38095238       0.23809524 </v>
   <v>       0.42857143       0.42857143       0.23809524 </v>
   <v>       0.47619048       0.42857143       0.23809524 </v>
   <v>       0.47619048       0.47619048       0.23809524 </v>
   <v>       0.28571429       0.28571429       0.28571429 </v>
   <v>       0.33333333       0.28571429       0.28571429 </v>
   <v>       0.38095238       0.28571429       0.28571429 </v>
   <v>       0.42857143       0.28571429       0.28571429 </v>
   <v>       0.47619048       0.28571429       0.28571429 </v>
   <v>       0.33333333       0.33333333       0.28571429 </v>
   <v>       0.38095238       0.33333333       0.28571429 </v>
   <v>       0.42857143       0.33333333       0.28571429 </v>
   <v>       0.47619048       0.33333333       0.28571429 </v>
   <v>       0.38095238       0.38095238       0.28571429 </v>
   <v>       0.42857143       0.38095238       0.28571429 </v>
   <v>       0.47619048       0.38095238       0.28571429 </v>
   <v>       0.42857143       0.42857143       0.28571429 </v>
   <v>       0.47619048       0.42857143       0.28571429 </v>
   <v>       0.47619048       0.47619048       0.28571429 </v>
   <v>       0.33333333       0.33333333       0.33333333 </v>
   <v>       0.38095238       0.33333333       0.33333333 </v>
   <v>       0.42857143       0.33333333       0.33333333 </v>
   <v>       0.47619048       0.33333333       0.33333333 </v>
   <v>       0.38095238       0.38095238       0.33333333 </v>
   <v>       0.42857143       0.38095238       0.33333333 </v>
   <v>       0.47619048       0.38095238       0.33333333 </v>
   <v>       0.42857143       0.42857143       0.33333333 </v>
   <v>       0.47619048       0.42857143       0.33333333 </v>
   <v>       0.47619048       0.47619048       0.33333333 </v>
   <v>       0.38095238       0.38095238       0.38095238 </v>
   <v>       0.42857143       0.38095238       0.38095238 </v>
   <v>       0.47619048       0.38095238       0.38095238 </v>
   <v>       0.42857143       0.42857143       0.38095238 </v>
   <v>       0.47619048       0.42857143       0.38095238 </v>
   <v>       0.47619048       0.47619048       0.38095238 </v>
   <v>       0.42857143       0.42857143       0.42857143 </v>
   <v>       0.47619048       0.42857143       0.42857143 </v>
   <v>       0.47619048       0.47619048       0.42857143 </v>
   <v>       0.47619048       0.47619048       0.47619048 </v>
  </varray>
  <varray name="weights" >
   <v>       0.00010798 </v>
   <v>       0.00064788 </v>
   <v>       0.00064788 </v>
   <v>       0.00064788 </v>
   <v>       0.00064788 </v>
   <v>       0.00064788 </v>
   <v>       0.00064788 </v>
   <v>       0.00064788 </v>
   <v>       0.00064788 </v>
   <v>       0.00064788 </v>
   <v>       0.00064788 </v>
   <v>       0.00129576 </v>
   <v>       0.00259151 </v>
   <v>       0.00259151 </v>
   <v>       0.00259151 </v>
   <v>       0.00259151 </v>
   <v>       0.00259151 </v>
   <v>       0.00259151 </v>
   <v>       0.00259151 </v>
   <v>       0.00259151 </v>
   <v>       0.00259151 </v>
   <v>       0.00129576 </v>
   <v>       0.00259151 </v>
   <v>       0.00259151 </v>
   <v>       0.00259151 </v>
   <v>       0.00259151 </v>
   <v>       0.00259151 </v>
   <v>       0.00259151 </v>
   <v>       0.00259151 </v>
   <v>       0.00259151 </v>
   <v>       0.00129576 </v>
   <v>       0.00259151 </v>
   <v>       0.00259151 </v>
   <v>       0.00259151 </v>
   <v>       0.00259151 </v>
   <v>       0.00259151 </v>
   <v>       0.00259151 </v>
   <v>       0.00259151 </v>
   <v>       0.00129576 </v>
   <v>       0.00259151 </v>
   <v>       0.00259151 </v>
   <v>       0.00259151 </v>
   <v>       0.00259151 </v>
   <v>       0.00259151 </v>
   <v>       0.00259151 </v>
   <v>       0.00129576 </v>
   <v>       0.00259151 </v>
   <v>       0.00259151 </v>
   <v>       0.00259151 </v>
   <v>       0.00259151 </v>
   <v>       0.00259151 </v>
   <v>       0.00129576 </v>
   <v>       0.00259151 </v>
   <v>       0.00259151 </v>
   <v>       0.00259151 </v>
   <v>       0.00259151 </v>
   <v>       0.00129576 </v>
   <v>       0.00259151 </v>
   <v>       0.00259151 </v>
   <v>       0.00259151 </v>
   <v>       0.00129576 </v>
   <v>       0.00259151 </v>
   <v>       0.00259151 </v>
   <v>       0.00129576 </v>
   <v>       0.00259151 </v>
   <v>       0.00129576 </v>
   <v>       0.00086384 </v>
   <v>       0.00259151 </v>
   <v>       0.00259151 </v>
   <v>       0.00259151 </v>
   <v>       0.00259151 </v>
   <v>       0.00259151 </v>
   <v>       0.00259151 </v>
   <v>       0.00259151 </v>
   <v>       0.00259151 </v>
   <v>       0.00259151 </v>
   <v>       0.00259151 </v>
   <v>       0.00518303 </v>
   <v>       0.00518303 </v>
   <v>       0.00518303 </v>
   <v>       0.00518303 </v>
   <v>       0.00518303 </v>
   <v>       0.00518303 </v>
   <v>       0.00518303 </v>
   <v>       0.00518303 </v>
   <v>       0.00259151 </v>
   <v>       0.00518303 </v>
   <v>       0.00518303 </v>
   <v>       0.00518303 </v>
   <v>       0.00518303 </v>
   <v>       0.00518303 </v>
   <v>       0.00518303 </v>
   <v>       0.00518303 </v>
   <v>       0.00259151 </v>
   <v>       0.00518303 </v>
   <v>       0.00518303 </v>
   <v>       0.00518303 </v>
   <v>       0.00518303 </v>
   <v>       0.00518303 </v>
   <v>       0.00518303 </v>
   <v>       0.00259151 </v>
   <v>       0.00518303 </v>
   <v>       0.00518303 </v>
   <v>       0.00518303 </v>
   <v>       0.00518303 </v>
   <v>       0.00518303 </v>
   <v>       0.00259151 </v>
   <v>       0.00518303 </v>
   <v>       0.00518303 </v>
   <v>       0.00518303 </v>
   <v>       0.00518303 </v>
   <v>       0.00259151 </v>
   <v>       0.00518303 </v>
   <v>       0.00518303 </v>
   <v>       0.00518303 </v>
   <v>       0.00259151 </v>
   <v>       0.00518303 </v>
   <v>       0.00518303 </v>
   <v>       0.00259151 </v>
   <v>       0.00518303 </v>
   <v>       0.00259151 </v>
   <v>       0.00086384 </v>
   <v>       0.00259151 </v>
   <v>       0.00259151 </v>
   <v>       0.00259151 </v>
   <v>       0.00259151 </v>
   <v>       0.00259151 </v>
   <v>       0.00259151 </v>
   <v>       0.00259151 </v>
   <v>       0.00259151 </v>
   <v>       0.00259151 </v>
   <v>       0.00518303 </v>
   <v>       0.00518303 </v>
   <v>       0.00518303 </v>
   <v>       0.00518303 </v>
   <v>       0.00518303 </v>
   <v>       0.00518303 </v>
   <v>       0.00518303 </v>
   <v>       0.00259151 </v>
   <v>       0.00518303 </v>
   <v>       0.00518303 </v>
   <v>       0.00518303 </v>
   <v>       0.00518303 </v>
   <v>       0.00518303 </v>
   <v>       0.00518303 </v>
   <v>       0.00259151 </v>
   <v>       0.00518303 </v>
   <v>       0.00518303 </v>
   <v>       0.00518303 </v>
   <v>       0.00518303 </v>
   <v>       0.00518303 </v>
   <v>       0.00259151 </v>
   <v>       0.00518303 </v>
   <v>       0.00518303 </v>
   <v>       0.00518303 </v>
   <v>       0.00518303 </v>
   <v>       0.00259151 </v>
   <v>       0.00518303 </v>
   <v>       0.00518303 </v>
   <v>       0.00518303 </v>
   <v>       0.00259151 </v>
   <v>       0.00518303 </v>
   <v>       0.00518303 </v>
   <v>       0.00259151 </v>
   <v>       0.00518303 </v>
   <v>       0.00259151 </v>
   <v>       0.00086384 </v>
   <v>       0.00259151 </v>
   <v>       0.00259151 </v>
   <v>       0.00259151 </v>
   <v>       0.00259151 </v>
   <v>       0.00259151 </v>
   <v>       0.00259151 </v>
   <v>       0.00259151 </v>
   <v>       0.00259151 </v>
   <v>       0.00518303 </v>
   <v>       0.00518303 </v>
   <v>       0.00518303 </v>
   <v>       0.00518303 </v>
   <v>       0.00518303 </v>
   <v>       0.00518303 </v>
   <v>       0.00259151 </v>
   <v>       0.00518303 </v>
   <v>       0.00518303 </v>
   <v>       0.00518303 </v>
   <v>       0.00518303 </v>
   <v>       0.00518303 </v>
   <v>       0.00259151 </v>
   <v>       0.00518303 </v>
   <v>       0.00518303 </v>
   <v>       0.00518303 </v>
   <v>       0.00518303 </v>
   <v>       0.00259151 </v>
   <v>       0.00518303 </v>
   <v>       0.00518303 </v>
   <v>       0.00518303 </v>
   <v>       0.00259151 </v>
   <v>       0.00518303 </v>
   <v>       0.00518303 </v>
   <v>       0.00259151 </v>
   <v>       0.00518303 </v>
   <v>       0.00259151 </v>
   <v>       0.00086384 </v>
   <v>       0.00259151 </v>
   <v>       0.00259151 </v>
   <v>       0.00259151 </v>
   <v>       0.00259151 </v>
   <v>       0.00259151 </v>
   <v>       0.00259151 </v>
   <v>       0.00259151 </v>
   <v>       0.00518303 </v>
   <v>       0.00518303 </v>
   <v>       0.00518303 </v>
   <v>       0.00518303 </v>
   <v>       0.00518303 </v>
   <v>       0.00259151 </v>
   <v>       0.00518303 </v>
   <v>       0.00518303 </v>
   <v>       0.00518303 </v>
   <v>       0.00518303 </v>
   <v>       0.00259151 </v>
   <v>       0.00518303 </v>
   <v>       0.00518303 </v>
   <v>       0.00518303 </v>
   <v>       0.00259151 </v>
   <v>       0.00518303 </v>
   <v>       0.00518303 </v>
   <v>       0.00259151 </v>
   <v>       0.00518303 </v>
   <v>       0.00259151 </v>
   <v>       0.00086384 </v>
   <v>       0.00259151 </v>
   <v>       0.00259151 </v>
   <v>       0.00259151 </v>
   <v>       0.00259151 </v>
   <v>       0.00259151 </v>
   <v>       0.00259151 </v>
   <v>       0.00518303 </v>
   <v>       0.00518303 </v>
   <v>       0.00518303 </v>
   <v>       0.00518303 </v>
   <v>       0.00259151 </v>
   <v>       0.00518303 </v>
   <v>       0.00518303 </v>
   <v>       0.00518303 </v>
   <v>       0.00259151 </v>
   <v>       0.00518303 </v>
   <v>       0.00518303 </v>
   <v>       0.00259151 </v>
   <v>       0.00518303 </v>
   <v>       0.00259151 </v>
   <v>       0.00086384 </v>
   <v>       0.00259151 </v>
   <v>       0.00259151 </v>
   <v>       0.00259151 </v>
   <v>       0.00259151 </v>
   <v>       0.00259151 </v>
   <v>       0.00518303 </v>
   <v>       0.00518303 </v>
   <v>       0.00518303 </v>
   <v>       0.00259151 </v>
   <v>       0.00518303 </v>
   <v>       0.00518303 </v>
   <v>       0.00259151 </v>
   <v>       0.00518303 </v>
   <v>       0.00259151 </v>
   <v>       0.00086384 </v>
   <v>       0.00259151 </v>
   <v>       0.00259151 </v>
   <v>       0.00259151 </v>
   <v>       0.00259151 </v>
   <v>       0.00518303 </v>
   <v>       0.00518303 </v>
   <v>       0.00259151 </v>
   <v>       0.00518303 </v>
   <v>       0.00259151 </v>
   <v>       0.00086384 </v>
   <v>       0.00259151 </v>
   <v>       0.00259151 </v>
   <v>       0.00259151 </v>
   <v>       0.00518303 </v>
   <v>       0.00259151 </v>
   <v>       0.00086384 </v>
   <v>       0.00259151 </v>
   <v>       0.00259151 </v>
   <v>       0.00086384 </v>
  </varray>
 </kpoints>
 <parameters>
  <separator name="general" >
   <i type="string" name="SYSTEM">Al fcc relaxation</i>
   <i type="logical" name="LCOMPAT"> F  </i>
  </separator>
  <separator name="electronic" >
   <i type="string" name="PREC">accura</i>
   <i name="ENMAX">    400.00000000</i>
   <i name="ENAUG">    291.05200000</i>
   <i name="EDIFF">      0.00000100</i>
   <i type="int" name="IALGO">    68</i>
   <i type="int" name="IWAVPR">    11</i>
   <i type="int" name="NBANDS">    14</i>
   <i type="int" name="NBANDSLOW">    -1</i>
   <i type="int" name="NBANDSHIGH">    -1</i>
   <i name="NELECT">     12.00000000</i>
   <i type="int" name="TURBO">     0</i>
   <i type="int" name="IRESTART">     0</i>
   <i type="int" name="NREBOOT">     0</i>
   <i type="int" name="NMIN">     0</i>
   <i name="EREF">      0.00000000</i>
   <separator name="electronic smearing" >
    <i type="int" name="ISMEAR">     1</i>
    <i name="SIGMA">      0.20000000</i>
    <i name="KSPACING">      0.08000000</i>
    <i type="logical" name="KGAMMA"> T  </i>
    <i type="logical" name="KBLOWUP"> T  </i>
   </separator>
   <separator name="electronic projectors" >
    <i type="logical" name="LREAL"> T  </i>
    <v name="ROPT">     -0.00025000</v>
    <i type="int" name="LMAXPAW">  -100</i>
    <i type="int" name="LMAXMIX">     2</i>
    <i type="logical" name="NLSPLINE"> F  </i>
   </separator>
   <separator name="electronic startup" >
    <i type="int" name="ISTART">     0</i>
    <i type="int" name="ICHARG">     2</i>
    <i type="int" name="INIWAV">     1</i>
   </separator>
   <separator name="electronic spin" >
    <i type="int" name="ISPIN">     1</i>
    <i type="logical" name="LNONCOLLINEAR"> F  </i>
    <v name="MAGMOM">      1.00000000      1.00000000      1.00000000      1.00000000</v>
    <i name="NUPDOWN">     -1.00000000</i>
    <i type="logical" name="LSORBIT"> F  </i>
    <v name="SAXIS">      0.00000000      0.00000000      1.00000000</v>
    <i type="logical" name="LSPIRAL"> F  </i>
    <v name="QSPIRAL">      0.00000000      0.00000000      0.00000000</v>
    <i type="logical" name="LZEROZ"> F  </i>
   </separator>
   <separator name="electronic exchange-correlation" >
    <i type="logical" name="LASPH"> F  </i>
    <i type="logical" name="LMETAGGA"> F  </i>
   </separator>
   <separator name="electronic convergence" >
    <i type="int" name="NELM">    60</i>
    <i type="int" name="NELMDL">    -5</i>
    <i type="int" name="NELMIN">     4</i>
    <i name="ENINI">    400.00000000</i>
    <separator name="electronic convergence detail" >
     <i type="logical" name="LDIAG"> T  </i>
     <i type="logical" name="LSUBROT"> F  </i>
     <i name="WEIMIN">      0.00100000</i>
     <i name="EBREAK">      0.00000002</i>
     <i name="DEPER">      0.30000000</i>
     <i type="int" name="NRMM">     4</i>
     <i name="TIME">      0.40000000</i>
    </separator>
   </separator>
   <separator name="electronic mixer" >
    <i name="AMIX">      0.40000000</i>
    <i name="BMIX">      1.00000000</i>
    <i name="AMIN">      0.10000000</i>
    <i name="AMIX_MAG">      1.60000000</i>
    <i name="BMIX_MAG">      1.00000000</i>
    <separator name="electronic mixer details" >
     <i type="int" name="IMIX">     4</i>
     <i type="logical" name="MIXFIRST"> F  </i>
     <i type="int" name="MAXMIX">   -45</i>
     <i name="WC">    100.00000000</i>
     <i type="int" name="INIMIX">     1</i>
     <i type="int" name="MIXPRE">     1</i>
     <i type="int" name="MREMOVE">     5</i>
    </separator>
   </separator>
   <separator name="electronic dipolcorrection" >
    <i type="logical" name="LDIPOL"> F  </i>
    <i type="logical" name="LMONO"> F  </i>
    <i type="int" name="IDIPOL">     0</i>
    <i name="EPSILON">      1.00000000</i>
    <v name="DIPOL">   -100.00000000   -100.00000000   -100.00000000</v>
    <i name="EFIELD">      0.00000000</i>
   </separator>
  </separator>
  <separator name="grids" >
   <i type="int" name="NGX">    28</i>
   <i type="int" name="NGY">    28</i>
   <i type="int" name="NGZ">    28</i>
   <i type="int" name="NGXF">    56</i>
   <i type="int" name="NGYF">    56</i>
   <i type="int" name="NGZF">    56</i>
   <i type="logical" name="ADDGRID"> F  </i>
  </separator>
  <separator name="ionic" >
   <i type="int" name="NSW">   100</i>
   <i type="int" name="IBRION">     2</i>
   <i type="int" name="MDALGO">     0</i>
   <i type="int" name="ISIF">     4</i>
   <i name="PSTRESS">      0.00000000</i>
   <i name="EDIFFG">      0.00001000</i>
   <i type="int" name="NFREE">     1</i>
   <i name="POTIM">      0.50000000</i>
   <i name="SMASS">     -3.00000000</i>
   <i name="SCALEE">      1.00000000</i>
  </separator>
  <separator name="ionic md" >
   <i name="TEBEG">      0.00010000</i>
   <i name="TEEND">      0.00010000</i>
   <i type="int" name="NBLOCK">     1</i>
   <i type="int" name="KBLOCK">   100</i>
   <i type="int" name="NPACO">   256</i>
   <i name="APACO">     10.00000000</i>
  </separator>
  <separator name="symmetry" >
   <i type="int" name="ISYM">     2</i>
   <i name="SYMPREC">      0.00001000</i>
  </separator>
  <separator name="dos" >
   <i type="int" name="LORBIT">     0</i>
   <v name="RWIGS">     -1.00000000</v>
   <i type="int" name="NEDOS">   301</i>
   <i name="EMIN">     10.00000000</i>
   <i name="EMAX">    -10.00000000</i>
   <i name="EFERMI">      0.00000000</i>
  </separator>
  <separator name="writing" >
   <i type="int" name="NWRITE">     2</i>
   <i type="logical" name="LWAVE"> F  </i>
   <i type="logical" name="LDOWNSAMPLE"> F  </i>
   <i type="logical" name="LCHARG"> F  </i>
   <i type="logical" name="LPARD"> F  </i>
   <i type="logical" name="LVTOT"> F  </i>
   <i type="logical" name="LVHAR"> F  </i>
   <i type="logical" name="LELF"> F  </i>
   <i type="logical" name="LOPTICS"> F  </i>
   <v name="STM">      0.00000000      0.00000000      0.00000000      0.00000000      0.00000000      0.00000000      0.00000000</v>
  </separator>
  <separator name="performance" >
   <i type="int" name="NPAR">    14</i>
   <i type="int" name="NSIM">     4</i>
   <i type="int" name="NBLK">    -1</i>
   <i type="logical" name="LPLANE"> T  </i>
   <i type="logical" name="LSCALAPACK"> T  </i>
   <i type="logical" name="LSCAAWARE"> F  </i>
   <i type="logical" name="LSCALU"> F  </i>
   <i type="logical" name="LASYNC"> F  </i>
   <i type="logical" name="LORBITALREAL"> F  </i>
  </separator>
  <separator name="miscellaneous" >
   <i type="int" name="IDIOT">     3</i>
   <i type="int" name="PHON_NSTRUCT">    -1</i>
   <i type="logical" name="LMUSIC"> F  </i>
   <v name="POMASS">     26.98100000</v>
   <v name="DARWINR">      0.00000000</v>
   <v name="DARWINV">      1.00000000</v>
   <i type="logical" name="LCORR"> T  </i>
  </separator>
  <i type="logical" name="GGA_COMPAT"> T  </i>
  <i type="logical" name="LBERRY"> F  </i>
  <i type="int" name="ICORELEVEL">     0</i>
  <i type="logical" name="LDAU"> F  </i>
  <i type="int" name="I_CONSTRAINED_M">     0</i>
  <separator name="electronic exchange-correlation" >
   <i type="string" name="GGA">--</i>
   <i type="int" name="VOSKOWN">     0</i>
   <i type="logical" name="LHFCALC"> F  </i>
   <i type="string" name="PRECFOCK"></i>
   <i type="logical" name="LSYMGRAD"> F  </i>
   <i type="logical" name="LHFONE"> F  </i>
   <i type="logical" name="LRHFCALC"> F  </i>
   <i type="logical" name="LTHOMAS"> F  </i>
   <i type="logical" name="LMODELHF"> F  </i>
   <i type="logical" name="LFOCKACE"> F  </i>
   <i name="ENCUT4O">     -1.00000000</i>
   <i type="int" name="EXXOEP">     0</i>
   <i type="int" name="FOURORBIT">     0</i>
   <i name="AEXX">      0.00000000</i>
   <i name="HFALPHA">      0.00000000</i>
   <i name="MCALPHA">      0.00000000</i>
   <i name="ALDAX">      1.00000000</i>
   <i name="AGGAX">      1.00000000</i>
   <i name="ALDAC">      1.00000000</i>
   <i name="AGGAC">      1.00000000</i>
   <i type="int" name="NKREDX">     1</i>
   <i type="int" name="NKREDY">     1</i>
   <i type="int" name="NKREDZ">     1</i>
   <i type="logical" name="SHIFTRED"> F  </i>
   <i type="logical" name="ODDONLY"> F  </i>
   <i type="logical" name="EVENONLY"> F  </i>
   <i type="int" name="LMAXFOCK">     0</i>
   <i type="int" name="NMAXFOCKAE">     0</i>
   <i type="logical" name="LFOCKAEDFT"> F  </i>
   <i name="HFSCREEN">      0.00000000</i>
   <i name="HFSCREENC">      0.00000000</i>
   <i type="int" name="NBANDSGWLOW">     0</i>
  </separator>
  <separator name="vdW DFT" >
   <i type="logical" name="LUSE_VDW"> F  </i>
   <i type="int" name="IVDW_NL">     1</i>
   <i type="logical" name="LSPIN_VDW"> F  </i>
   <i name="Zab_VDW">     -0.84910000</i>
   <i name="PARAM1">      0.12340000</i>
   <i name="PARAM2">      1.00000000</i>
   <i name="PARAM3">      0.00000000</i>
  </separator>
  <separator name="model GW" >
   <i type="int" name="MODEL_GW">     0</i>
   <i name="MODEL_EPS0">      8.89472752</i>
   <i name="MODEL_ALPHA">      1.00000000</i>
  </separator>
  <separator name="linear response parameters" >
   <i type="logical" name="LEPSILON"> F  </i>
   <i type="logical" name="LRPA"> F  </i>
   <i type="logical" name="LNABLA"> F  </i>
   <i type="logical" name="LVEL"> F  </i>
   <i name="CSHIFT">      0.10000000</i>
   <i name="OMEGAMAX">     -1.00000000</i>
   <i name="DEG_THRESHOLD">      0.00200000</i>
   <i name="RTIME">     -0.10000000</i>
   <i name="WPLASMAI">      0.00000000</i>
   <v name="DFIELD">      0.00000000      0.00000000      0.00000000</v>
   <v name="WPLASMA">      0.00000000      0.00000000      0.00000000      0.00000000      0.00000000      0.00000000      0.00000000      0.00000000      0.00000000</v>
  </separator>
  <separator name="orbital magnetization" >
   <i type="logical" name="NUCIND"> F  </i>
   <v name="MAGPOS">      0.00000000      0.00000000      0.00000000</v>
   <i type="logical" name="LNICSALL"> T  </i>
   <i type="logical" name="ORBITALMAG"> F  </i>
   <i type="logical" name="LMAGBLOCH"> F  </i>
   <i type="logical" name="LCHIMAG"> F  </i>
   <i type="logical" name="LGAUGE"> T  </i>
   <i type="int" name="MAGATOM">     0</i>
   <v name="MAGDIPOL">      0.00000000      0.00000000      0.00000000</v>
   <v name="AVECCONST">      0.00000000      0.00000000      0.00000000</v>
  </separator>
  <separator name="response functions" >
   <i type="logical" name="LALL_IN_ONE"> F  </i>
   <i type="int" name="IALL_IN_ONE">    -1</i>
   <i type="int" name="NBANDS_WAVE">    -1</i>
   <i type="logical" name="LFINITE_TEMPERATURE"> F  </i>
   <i type="logical" name="LADDER"> F  </i>
   <i type="logical" name="LRPAFORCE"> F  </i>
   <i type="logical" name="LFXC"> F  </i>
   <i type="logical" name="LHARTREE"> T  </i>
   <i type="int" name="IBSE">     0</i>
   <v type="int" name="KPOINT">    -1     0     0     0</v>
   <i type="logical" name="LTCTC"> F  </i>
   <i type="logical" name="LTCTE"> F  </i>
   <i type="logical" name="LTETE"> F  </i>
   <i type="logical" name="LTRIPLET"> F  </i>
   <i type="logical" name="LFXCEPS"> F  </i>
   <i type="logical" name="LFXHEG"> F  </i>
   <i type="int" name="NATURALO">     2</i>
   <i type="logical" name="LHOLEGF"> F  </i>
   <i type="logical" name="L2ORDER"> F  </i>
   <i type="logical" name="LDMP1"> F  </i>
   <i type="logical" name="LMP2LT"> F  </i>
   <i type="logical" name="LSMP2LT"> F  </i>
   <i type="logical" name="LGWLF"> F  </i>
   <i name="ENCUTGW">     -1.60000002</i>
   <i name="ENCUTGWSOFT">     -1.60000002</i>
   <i name="ENCUTLF">     -1.00000000</i>
   <i type="logical" name="LESF_SPLINES"> F  </i>
   <i type="int" name="LMAXMP2">    -1</i>
   <i name="SCISSOR">      0.00000000</i>
   <i type="int" name="NOMEGA">     0</i>
   <i type="int" name="NOMEGAR">     0</i>
   <i type="int" name="NBANDSGW">    -1</i>
   <i type="int" name="NBANDSO">    -1</i>
   <i type="int" name="NBANDSV">    -1</i>
   <i type="int" name="NELMGW">     1</i>
   <i type="int" name="NELMHF">     1</i>
   <i type="int" name="DIM">     3</i>
   <i type="int" name="IESPILON">     4</i>
   <i type="int" name="ANTIRES">     0</i>
   <i name="OMEGAMAX">    -30.00000000</i>
   <i name="OMEGAMIN">    -30.00000000</i>
   <i name="OMEGATL">   -200.00000000</i>
   <i type="int" name="OMEGAGRID">     0</i>
   <i name="CSHIFT">     -0.10000000</i>
   <i type="logical" name="LSELFENERGY"> F  </i>
   <i type="logical" name="LSPECTRAL"> F  </i>
   <i type="logical" name="LSPECTRALGW"> F  </i>
   <i type="logical" name="LSINGLES"> F  </i>
   <i type="logical" name="LFERMIGW"> F  </i>
   <i type="logical" name="ODDONLYGW"> F  </i>
   <i type="logical" name="EVENONLYGW"> F  </i>
   <i type="int" name="NKREDLFX">     1</i>
   <i type="int" name="NKREDLFY">     1</i>
   <i type="int" name="NKREDLFZ">     1</i>
   <i type="int" name="MAXMEM">  2800</i>
   <i type="int" name="TELESCOPE">     0</i>
   <i type="int" name="NTAUPAR">    -1</i>
   <i type="int" name="NOMEGAPAR">    -1</i>
   <i name="DAMP_NEWTON">      0.80000001</i>
   <i name="LAMBDA">      1.00000000</i>
  </separator>
  <separator name="External order field" >
   <i name="OFIELD_KAPPA">      0.00000000</i>
   <v name="OFIELD_K">      0.00000000      0.00000000      0.00000000</v>
   <i name="OFIELD_Q6_NEAR">      0.00000000</i>
   <i name="OFIELD_Q6_FAR">      0.00000000</i>
   <i name="OFIELD_A">      0.00000000</i>
  </separator>
  <separator name="optional k-points parameters" >
   <i type="int" name="KPOINTS_OPT_MODE">     1</i>
   <i type="logical" name="LKPOINTS_OPT"> F  </i>
  </separator>
 </parameters>
 <atominfo>
  <atoms>       4 </atoms>
  <types>       1 </types>
  <array name="atoms" >
   <dimension dim="1">ion</dimension>
   <field type="string">element</field>
   <field type="int">atomtype</field>
   <set>
    <rc><c>Al</c><c>   1</c></rc>
    <rc><c>Al</c><c>   1</c></rc>
    <rc><c>Al</c><c>   1</c></rc>
    <rc><c>Al</c><c>   1</c></rc>
   </set>
  </array>
  <array name="atomtypes" >
   <dimension dim="1">type</dimension>
   <field type="int">atomspertype</field>
   <field type="string">element</field>
   <field>mass</field>
   <field>valence</field>
   <field type="string">pseudopotential</field>
   <set>
    <rc><c>   4</c><c>Al</c><c>     26.98100000</c><c>      3.00000000</c><c>  PAW_PBE Al 04Jan2001                  </c></rc>
   </set>
  </array>
 </atominfo>
 <structure name="initialpos" >
  <crystal>
   <varray name="basis" >
    <v>       3.89954374       0.00000000       0.00000000 </v>
    <v>      -0.00000000       3.89954374       0.00000000 </v>
    <v>       0.00000000       0.00000000       3.89954374 </v>
   </varray>
   <i name="volume">     59.29818347 </i>
   <varray name="rec_basis" >
    <v>       0.25644026       0.00000000      -0.00000000 </v>
    <v>       0.00000000       0.25644026       0.00000000 </v>
    <v>      -0.00000000      -0.00000000       0.25644026 </v>
   </varray>
  </crystal>
  <varray name="positions" >
   <v>       0.00000000       0.00000000       0.00000000 </v>
   <v>       0.00000000       0.50000000       0.50000000 </v>
   <v>       0.50000000       0.00000000       0.50000000 </v>
   <v>       0.50000000       0.50000000       0.00000000 </v>
  </varray>
 </structure>
 <calculation>
  <scstep>
   <time name="dav">   14.16    7.10</time>
   <time name="total">   14.21    7.13</time>
   <energy>
    <i name="alphaZ">     -0.90628338 </i>
    <i name="ewald">   -304.74813867 </i>
    <i name="hartreedc">     -0.28994734 </i>
    <i name="XCdc">   -104.17310064 </i>
    <i name="pawpsdc">    264.80062850 </i>
    <i name="pawaedc">   -136.98248303 </i>
    <i name="eentropy">     -0.00086512 </i>
    <i name="bandstr">     66.31963146 </i>
    <i name="atom">    214.15261729 </i>
    <i name="e_fr_energy">     -1.82794094 </i>
    <i name="e_wo_entrp">     -1.82707581 </i>
    <i name="e_0_energy">     -1.82765256 </i>
   </energy>
  </scstep>
  <scstep>
   <time name="dav">   20.49   10.25</time>
   <time name="total">   20.49   10.26</time>
   <energy>
    <i name="e_fr_energy">    -14.81679557 </i>
    <i name="e_wo_entrp">    -14.81573090 </i>
    <i name="e_0_energy">    -14.81644068 </i>
   </energy>
  </scstep>
  <scstep>
   <time name="dav">   18.41    9.21</time>
   <time name="total">   18.42    9.22</time>
   <energy>
    <i name="e_fr_energy">    -14.88570723 </i>
    <i name="e_wo_entrp">    -14.88488905 </i>
    <i name="e_0_energy">    -14.88543450 </i>
   </energy>
  </scstep>
  <scstep>
   <time name="dav">   23.52   11.77</time>
   <time name="total">   23.53   11.77</time>
   <energy>
    <i name="e_fr_energy">    -14.88585650 </i>
    <i name="e_wo_entrp">    -14.88504029 </i>
    <i name="e_0_energy">    -14.88558443 </i>
   </energy>
  </scstep>
  <scstep>
   <time name="dav">   18.66    9.34</time>
   <time name="total">   19.11    9.56</time>
   <energy>
    <i name="e_fr_energy">    -14.88585659 </i>
    <i name="e_wo_entrp">    -14.88504038 </i>
    <i name="e_0_energy">    -14.88558452 </i>
   </energy>
  </scstep>
  <scstep>
   <time name="diag">    2.27    1.14</time>
   <time name="diis">    4.69    2.58</time>
   <time name="orth">    0.15    0.08</time>
   <time name="total">    7.60    4.04</time>
   <energy>
    <i name="e_fr_energy">    -14.82794754 </i>
    <i name="e_wo_entrp">    -14.82705476 </i>
    <i name="e_0_energy">    -14.82764995 </i>
   </energy>
  </scstep>
  <scstep>
   <time name="diag">    2.29    1.15</time>
   <time name="diis">    4.59    2.48</time>
   <time name="orth">    0.14    0.07</time>
   <time name="total">    7.52    3.95</time>
   <energy>
    <i name="e_fr_energy">    -14.78592422 </i>
    <i name="e_wo_entrp">    -14.78491030 </i>
    <i name="e_0_energy">    -14.78558625 </i>
   </energy>
  </scstep>
  <scstep>
   <time name="diag">    2.27    1.14</time>
   <time name="diis">    4.66    2.52</time>
   <time name="orth">    0.15    0.08</time>
   <time name="total">    7.58    3.98</time>
   <energy>
    <i name="e_fr_energy">    -14.78589381 </i>
    <i name="e_wo_entrp">    -14.78487644 </i>
    <i name="e_0_energy">    -14.78555469 </i>
   </energy>
  </scstep>
  <scstep>
   <time name="diag">    2.26    1.13</time>
   <time name="diis">    4.64    2.50</time>
   <time name="orth">    0.15    0.07</time>
   <time name="total">    7.54    3.95</time>
   <energy>
    <i name="e_fr_energy">    -14.78589963 </i>
    <i name="e_wo_entrp">    -14.78488067 </i>
    <i name="e_0_energy">    -14.78555998 </i>
   </energy>
  </scstep>
  <scstep>
   <time name="diag">    2.26    1.13</time>
   <time name="diis">    4.60    2.46</time>
   <time name="orth">    0.15    0.08</time>
   <time name="total">    7.50    3.91</time>
   <energy>
    <i name="e_fr_energy">    -14.78589878 </i>
    <i name="e_wo_entrp">    -14.78487969 </i>
    <i name="e_0_energy">    -14.78555908 </i>
   </energy>
  </scstep>
  <scstep>
   <time name="diag">    2.35    1.18</time>
   <time name="diis">    4.19    2.54</time>
   <time name="orth">    0.15    0.08</time>
   <time name="total">    7.19    4.04</time>
   <energy>
    <i name="e_fr_energy">    -14.78589691 </i>
    <i name="e_wo_entrp">    -14.78487793 </i>
    <i name="e_0_energy">    -14.78555725 </i>
   </energy>
  </scstep>
  <scstep>
   <time name="diag">    2.26    1.13</time>
   <time name="diis">    3.60    2.28</time>
   <time name="orth">    0.15    0.08</time>
   <time name="total">    6.06    3.51</time>
   <energy>
    <i name="alphaZ">     -0.90628338 </i>
    <i name="ewald">   -304.74813867 </i>
    <i name="hartreedc">     -0.51321036 </i>
    <i name="XCdc">   -103.64090327 </i>
    <i name="pawpsdc">    684.08090048 </i>
    <i name="pawaedc">   -556.39370407 </i>
    <i name="eentropy">     -0.00101897 </i>
    <i name="bandstr">     53.18384447 </i>
    <i name="atom">    214.15261729 </i>
    <i name="e_fr_energy">    -14.78589648 </i>
    <i name="e_wo_entrp">    -14.78487751 </i>
    <i name="e_0_energy">    -14.78555682 </i>
   </energy>
  </scstep>
  <structure>
   <crystal>
    <varray name="basis" >
     <v>       3.89954374       0.00000000       0.00000000 </v>
     <v>      -0.00000000       3.89954374       0.00000000 </v>
     <v>       0.00000000       0.00000000       3.89954374 </v>
    </varray>
    <i name="volume">     59.29818347 </i>
    <varray name="rec_basis" >
     <v>       0.25644026       0.00000000      -0.00000000 </v>
     <v>       0.00000000       0.25644026       0.00000000 </v>
     <v>      -0.00000000      -0.00000000       0.25644026 </v>
    </varray>
   </crystal>
   <varray name="positions" >
    <v>       0.00000000       0.00000000       0.00000000 </v>
    <v>       0.00000000       0.50000000       0.50000000 </v>
    <v>       0.50000000       0.00000000       0.50000000 </v>
    <v>       0.50000000       0.50000000       0.00000000 </v>
   </varray>
  </structure>
  <varray name="forces" >
   <v>       0.00000000      -0.00000000      -0.00000000 </v>
   <v>       0.00000000       0.00000000       0.00000000 </v>
   <v>      -0.00000000      -0.00000000      -0.00000000 </v>
   <v>      -0.00000000      -0.00000000       0.00000000 </v>
  </varray>
  <varray name="stress" >
   <v>     104.30610363      -0.00000000       0.00000000 </v>
   <v>      -0.00000000     104.30610363       0.00000000 </v>
   <v>       0.00000000       0.00000000     104.30610363 </v>
  </varray>
  <energy>
   <i name="e_fr_energy">    -14.78589648 </i>
   <i name="e_wo_entrp">    -14.78487751 </i>
   <i name="e_0_energy">    -14.78555682 </i>
  </energy>
  <time name="totalsc">  159.63   81.96</time>
  <eigenvalues>
   <array>
    <dimension dim="1">band</dimension>
    <dimension dim="2">kpoint</dimension>
    <dimension dim="3">spin</dimension>
    <field>eigene</field>
    <field>occ</field>
    <set>
     <set comment="spin 1">
      <set comment="kpoint 1">
       <r>   -2.7314    1.0000 </r>
       <r>    5.9815    1.0000 </r>
       <r>    5.9815    1.0000 </r>
       <r>    5.9815    1.0000 </r>
       <r>    7.5234    1.0000 </r>
       <r>    7.5234    1.0000 </r>
       <r>    7.5234    1.0000 </r>
       <r>   14.4456   -0.0000 </r>
       <r>   14.4456   -0.0000 </r>
       <r>   14.4456   -0.0000 </r>
       <r>   15.2865    0.0000 </r>
       <r>   15.2865    0.0000 </r>
       <r>   15.2865    0.0000 </r>
       <r>   15.2865    0.0000 </r>
      </set>
      <set comment="kpoint 2">
       <r>   -2.7093    1.0000 </r>
       <r>    5.6047    1.0000 </r>
       <r>    6.0014    1.0000 </r>
       <r>    6.0014    1.0000 </r>
       <r>    7.5439    1.0000 </r>
       <r>    7.5439    1.0000 </r>
       <r>    7.9375    1.0000 </r>
       <r>   13.9373   -0.0000 </r>
       <r>   13.9373   -0.0000 </r>
       <r>   14.4674   -0.0000 </r>
       <r>   15.1348    0.0000 </r>
       <r>   15.1348    0.0000 </r>
       <r>   15.3048    0.0000 </r>
       <r>   15.3048    0.0000 </r>
      </set>
      <set comment="kpoint 3">
       <r>   -2.6432    1.0000 </r>
       <r>    4.9146    1.0000 </r>
       <r>    6.0611    1.0000 </r>
       <r>    6.0611    1.0000 </r>
       <r>    7.6052    1.0000 </r>
       <r>    7.6052    1.0000 </r>
       <r>    8.7392    1.0044 </r>
       <r>   13.1948   -0.0000 </r>
       <r>   13.1948   -0.0000 </r>
       <r>   14.5324   -0.0000 </r>
       <r>   14.7448    0.0000 </r>
       <r>   14.7448    0.0000 </r>
       <r>   15.3595    0.0000 </r>
       <r>   15.3595    0.0000 </r>
      </set>
      <set comment="kpoint 4">
       <r>   -2.5330    1.0000 </r>
       <r>    4.1855    1.0000 </r>
       <r>    6.1607    1.0000 </r>
       <r>    6.1607    1.0000 </r>
       <r>    7.7067    1.0000 </r>
       <r>    7.7067    1.0000 </r>
       <r>    9.6547   -0.0018 </r>
       <r>   12.4634   -0.0000 </r>
       <r>   12.4634   -0.0000 </r>
       <r>   14.2282   -0.0000 </r>
       <r>   14.2282   -0.0000 </r>
       <r>   14.6413    0.0000 </r>
       <r>   15.4508    0.0000 </r>
       <r>   15.4508    0.0000 </r>
      </set>
      <set comment="kpoint 5">
       <r>   -2.3788    1.0000 </r>
       <r>    3.4706    1.0000 </r>
       <r>    6.3002    1.0000 </r>
       <r>    6.3002    1.0000 </r>
       <r>    7.8471    1.0000 </r>
       <r>    7.8471    1.0000 </r>
       <r>   10.6301   -0.0000 </r>
       <r>   11.7647   -0.0000 </r>
       <r>   11.7647   -0.0000 </r>
       <r>   13.6617   -0.0000 </r>
       <r>   13.6617   -0.0000 </r>
       <r>   14.7938    0.0000 </r>
       <r>   15.5787    0.0000 </r>
       <r>   15.5787    0.0000 </r>
      </set>
      <set comment="kpoint 6">
       <r>   -2.1810    1.0000 </r>
       <r>    2.7845    1.0000 </r>
       <r>    6.4796    1.0000 </r>
       <r>    6.4796    1.0000 </r>
       <r>    8.0245    1.0000 </r>
       <r>    8.0245    1.0000 </r>
       <r>   11.1038   -0.0000 </r>
       <r>   11.1038   -0.0000 </r>
       <r>   11.6515   -0.0000 </r>
       <r>   13.0878   -0.0000 </r>
       <r>   13.0878   -0.0000 </r>
       <r>   14.9897    0.0000 </r>
       <r>   15.7431    0.0000 </r>
       <r>   15.7431    0.0000 </r>
      </set>
      <set comment="kpoint 7">
       <r>   -1.9395    1.0000 </r>
       <r>    2.1328    1.0000 </r>
       <r>    6.6989    1.0000 </r>
       <r>    6.6989    1.0000 </r>
       <r>    8.2352    1.0000 </r>
       <r>    8.2352    1.0000 </r>
       <r>   10.4823   -0.0000 </r>
       <r>   10.4823   -0.0000 </r>
       <r>   12.5305   -0.0000 </r>
       <r>   12.5305   -0.0000 </r>
       <r>   12.7120   -0.0000 </r>
       <r>   15.2288    0.0000 </r>
       <r>   15.9442    0.0000 </r>
       <r>   15.9442    0.0000 </r>
      </set>
      <set comment="kpoint 8">
       <r>   -1.6548    1.0000 </r>
       <r>    1.5181    1.0000 </r>
       <r>    6.9584    1.0000 </r>
       <r>    6.9584    1.0000 </r>
       <r>    8.4723    1.0000 </r>
       <r>    8.4723    1.0000 </r>
       <r>    9.9007   -0.0000 </r>
       <r>    9.9007   -0.0000 </r>
       <r>   12.0078   -0.0000 </r>
       <r>   12.0078   -0.0000 </r>
       <r>   13.8091   -0.0000 </r>
       <r>   15.5110    0.0000 </r>
       <r>   16.1819    0.0000 </r>
       <r>   16.1819    0.0000 </r>
      </set>
      <set comment="kpoint 9">
       <r>   -1.3271    1.0000 </r>
       <r>    0.9422    1.0000 </r>
       <r>    7.2579    1.0000 </r>
       <r>    7.2579    1.0000 </r>
       <r>    8.7225    1.0032 </r>
       <r>    8.7225    1.0032 </r>
       <r>    9.3594   -0.0158 </r>
       <r>    9.3594   -0.0158 </r>
       <r>   11.5395   -0.0000 </r>
       <r>   11.5395   -0.0000 </r>
       <r>   14.9404    0.0000 </r>
       <r>   15.8354    0.0000 </r>
       <r>   16.4563    0.0000 </r>
       <r>   16.4563    0.0000 </r>
      </set>
      <set comment="kpoint 10">
       <r>   -0.9567    1.0000 </r>
       <r>    0.4059    1.0000 </r>
       <r>    7.5976    1.0000 </r>
       <r>    7.5976    1.0000 </r>
       <r>    8.8584    1.0241 </r>
       <r>    8.8584    1.0241 </r>
       <r>    8.9564    1.0320 </r>
       <r>    8.9564    1.0320 </r>
       <r>   11.1584   -0.0000 </r>
       <r>   11.1584   -0.0000 </r>
       <r>   16.1042    0.0000 </r>
       <r>   16.2029    0.0000 </r>
       <r>   16.7673    0.0000 </r>
       <r>   16.7673    0.0000 </r>
      </set>
      <set comment="kpoint 11">
       <r>   -0.5441    1.0000 </r>
       <r>   -0.0897    1.0000 </r>
       <r>    7.9775    1.0000 </r>
       <r>    7.9775    1.0000 </r>
       <r>    8.3978    1.0000 </r>
       <r>    8.3978    1.0000 </r>
       <r>    9.1131    0.7451 </r>
       <r>    9.1131    0.7451 </r>
       <r>   10.9278   -0.0000 </r>
       <r>   10.9278   -0.0000 </r>
       <r>   16.6130    0.0000 </r>
       <r>   17.0737    0.0000 </r>
       <r>   17.1149    0.0000 </r>
       <r>   17.2177    0.0000 </r>
      </set>
      <set comment="kpoint 12">
       <r>   -2.6873    1.0000 </r>
       <r>    5.6249    1.0000 </r>
       <r>    5.6249    1.0000 </r>
       <r>    6.0213    1.0000 </r>
       <r>    7.5643    1.0000 </r>
       <r>    7.9576    1.0000 </r>
       <r>    7.9576    1.0000 </r>
       <r>   13.5429   -0.0000 </r>
       <r>   13.9581   -0.0000 </r>
       <r>   13.9581   -0.0000 </r>
       <r>   15.1534    0.0000 </r>
       <r>   15.1534    0.0000 </r>
       <r>   15.3234    0.0000 </r>
       <r>   15.8546    0.0000 </r>
      </set>
      <set comment="kpoint 13">
       <r>   -2.6211    1.0000 </r>
       <r>    4.9352    1.0000 </r>
       <r>    5.6854    1.0000 </r>
       <r>    6.0810    1.0000 </r>
       <r>    7.6252    1.0000 </r>
       <r>    8.0178    1.0000 </r>
       <r>    8.7588    1.0062 </r>
       <r>   12.8595   -0.0000 </r>
       <r>   13.2154   -0.0000 </r>
       <r>   14.0205   -0.0000 </r>
       <r>   14.7640    0.0000 </r>
       <r>   15.0615    0.0000 </r>
       <r>   15.2090    0.0000 </r>
       <r>   15.9123    0.0000 </r>
      </set>
      <set comment="kpoint 14">
       <r>   -2.5109    1.0000 </r>
       <r>    4.2062    1.0000 </r>
       <r>    5.7864    1.0000 </r>
       <r>    6.1806    1.0000 </r>
       <r>    7.7260    1.0000 </r>
       <r>    8.1176    1.0000 </r>
       <r>    9.6736   -0.0012 </r>
       <r>   12.1532   -0.0000 </r>
       <r>   12.4837   -0.0000 </r>
       <r>   14.1246   -0.0000 </r>
       <r>   14.2482   -0.0000 </r>
       <r>   14.5560   -0.0000 </r>
       <r>   15.3018    0.0000 </r>
       <r>   16.0085    0.0000 </r>
      </set>
      <set comment="kpoint 15">
       <r>   -2.3568    1.0000 </r>
       <r>    3.4915    1.0000 </r>
       <r>    5.9276    1.0000 </r>
       <r>    6.3201    1.0000 </r>
       <r>    7.8652    1.0000 </r>
       <r>    8.2556    1.0000 </r>
       <r>   10.6482   -0.0000 </r>
       <r>   11.4690   -0.0000 </r>
       <r>   11.7850   -0.0000 </r>
       <r>   13.6830   -0.0000 </r>
       <r>   13.9881   -0.0000 </r>
       <r>   14.2700   -0.0000 </r>
       <r>   15.4318    0.0000 </r>
       <r>   16.1431    0.0000 </r>
      </set>
      <set comment="kpoint 16">
       <r>   -2.1590    1.0000 </r>
       <r>    2.8056    1.0000 </r>
       <r>    6.1089    1.0000 </r>
       <r>    6.4995    1.0000 </r>
       <r>    8.0397    1.0000 </r>
       <r>    8.4297    1.0000 </r>
       <r>   10.8195   -0.0000 </r>
       <r>   11.1241   -0.0000 </r>
       <r>   11.6683   -0.0000 </r>
       <r>   13.1106   -0.0000 </r>
       <r>   13.4104   -0.0000 </r>
       <r>   14.4566   -0.0000 </r>
       <r>   15.5992    0.0000 </r>
       <r>   16.3165    0.0000 </r>
      </set>
      <set comment="kpoint 17">
       <r>   -1.9176    1.0000 </r>
       <r>    2.1540    1.0000 </r>
       <r>    6.3302    1.0000 </r>
       <r>    6.7189    1.0000 </r>
       <r>    8.2434    1.0000 </r>
       <r>    8.6361    1.0005 </r>
       <r>   10.2125   -0.0000 </r>
       <r>   10.5025   -0.0000 </r>
       <r>   12.5560   -0.0000 </r>
       <r>   12.7267   -0.0000 </r>
       <r>   12.8479   -0.0000 </r>
       <r>   14.6845    0.0000 </r>
       <r>   15.8043    0.0000 </r>
       <r>   16.5287    0.0000 </r>
      </set>
      <set comment="kpoint 18">
       <r>   -1.6329    1.0000 </r>
       <r>    1.5394    1.0000 </r>
       <r>    6.5912    1.0000 </r>
       <r>    6.9783    1.0000 </r>
       <r>    8.4589    1.0000 </r>
       <r>    8.8669    1.0260 </r>
       <r>    9.6619   -0.0015 </r>
       <r>    9.9209   -0.0000 </r>
       <r>   12.0382   -0.0000 </r>
       <r>   12.3168   -0.0000 </r>
       <r>   13.8198   -0.0000 </r>
       <r>   14.9533    0.0000 </r>
       <r>   16.0483    0.0000 </r>
       <r>   16.7798    0.0000 </r>
      </set>
      <set comment="kpoint 19">
       <r>   -1.3053    1.0000 </r>
       <r>    0.9636    1.0000 </r>
       <r>    6.8914    1.0000 </r>
       <r>    7.2779    1.0000 </r>
       <r>    8.6050    1.0002 </r>
       <r>    9.1059    0.7706 </r>
       <r>    9.2405    0.2352 </r>
       <r>    9.3795   -0.0277 </r>
       <r>   11.5805   -0.0000 </r>
       <r>   11.8332   -0.0000 </r>
       <r>   14.9420    0.0000 </r>
       <r>   15.2625    0.0000 </r>
       <r>   16.3345    0.0000 </r>
       <r>   17.0849    0.0000 </r>
      </set>
      <set comment="kpoint 20">
       <r>   -0.9350    1.0000 </r>
       <r>    0.4275    1.0000 </r>
       <r>    7.2298    1.0000 </r>
       <r>    7.6176    1.0000 </r>
       <r>    8.4070    1.0000 </r>
       <r>    8.8785    1.0286 </r>
       <r>    9.2024    0.3813 </r>
       <r>    9.3157    0.0372 </r>
       <r>   11.2250   -0.0000 </r>
       <r>   11.4215   -0.0000 </r>
       <r>   15.6118    0.0000 </r>
       <r>   16.0686    0.0000 </r>
       <r>   16.6857    0.0000 </r>
       <r>   16.8940    0.0000 </r>
      </set>
      <set comment="kpoint 21">
       <r>   -0.5224    1.0000 </r>
       <r>   -0.0681    1.0000 </r>
       <r>    7.6040    1.0000 </r>
       <r>    7.9975    1.0000 </r>
       <r>    8.0071    1.0000 </r>
       <r>    8.4178    1.0000 </r>
       <r>    9.3576   -0.0143 </r>
       <r>    9.4209   -0.0354 </r>
       <r>   11.0516   -0.0000 </r>
       <r>   11.1319   -0.0000 </r>
       <r>   16.0007    0.0000 </r>
       <r>   16.4282    0.0000 </r>
       <r>   16.8897    0.0000 </r>
       <r>   17.3373    0.0000 </r>
      </set>
      <set comment="kpoint 22">
       <r>   -2.5550    1.0000 </r>
       <r>    4.9966    1.0000 </r>
       <r>    4.9966    1.0000 </r>
       <r>    6.1408    1.0000 </r>
       <r>    7.6850    1.0000 </r>
       <r>    8.8175    1.0151 </r>
       <r>    8.8175    1.0151 </r>
       <r>   12.2219   -0.0000 </r>
       <r>   13.2768   -0.0000 </r>
       <r>   13.2768   -0.0000 </r>
       <r>   14.8217    0.0000 </r>
       <r>   14.8217    0.0000 </r>
       <r>   15.4342    0.0000 </r>
       <r>   16.5407    0.0000 </r>
      </set>
      <set comment="kpoint 23">
       <r>   -2.4449    1.0000 </r>
       <r>    4.2683    1.0000 </r>
       <r>    5.0991    1.0000 </r>
       <r>    6.2404    1.0000 </r>
       <r>    7.7834    1.0000 </r>
       <r>    8.9144    1.0347 </r>
       <r>    9.7302   -0.0003 </r>
       <r>   11.5395   -0.0000 </r>
       <r>   12.5449   -0.0000 </r>
       <r>   13.3791   -0.0000 </r>
       <r>   14.3087   -0.0000 </r>
       <r>   14.9181    0.0000 </r>
       <r>   15.1863    0.0000 </r>
       <r>   16.8764    0.0000 </r>
      </set>
      <set comment="kpoint 24">
       <r>   -2.2909    1.0000 </r>
       <r>    3.5542    1.0000 </r>
       <r>    5.2423    1.0000 </r>
       <r>    6.3799    1.0000 </r>
       <r>    7.9176    1.0000 </r>
       <r>    9.0480    0.9331 </r>
       <r>   10.7023   -0.0000 </r>
       <r>   10.8720   -0.0000 </r>
       <r>   11.8459   -0.0000 </r>
       <r>   13.5222   -0.0000 </r>
       <r>   13.7471   -0.0000 </r>
       <r>   14.6685    0.0000 </r>
       <r>   15.0534    0.0000 </r>
       <r>   17.0130    0.0000 </r>
      </set>
      <set comment="kpoint 25">
       <r>   -2.0931    1.0000 </r>
       <r>    2.8687    1.0000 </r>
       <r>    5.4261    1.0000 </r>
       <r>    6.5593    1.0000 </r>
       <r>    8.0808    1.0000 </r>
       <r>    9.2153    0.3295 </r>
       <r>   10.2419   -0.0000 </r>
       <r>   11.1847   -0.0000 </r>
       <r>   11.7178   -0.0000 </r>
       <r>   13.1800   -0.0000 </r>
       <r>   13.7060   -0.0000 </r>
       <r>   14.1031   -0.0000 </r>
       <r>   15.2286    0.0000 </r>
       <r>   17.1889    0.0000 </r>
      </set>
      <set comment="kpoint 26">
       <r>   -1.8519    1.0000 </r>
       <r>    2.2176    1.0000 </r>
       <r>    5.6503    1.0000 </r>
       <r>    6.7788    1.0000 </r>
       <r>    8.2534    1.0000 </r>
       <r>    9.4105   -0.0352 </r>
       <r>    9.6734   -0.0012 </r>
       <r>   10.5630   -0.0000 </r>
       <r>   12.6343   -0.0000 </r>
       <r>   12.7688   -0.0000 </r>
       <r>   13.5418   -0.0000 </r>
       <r>   13.9307   -0.0000 </r>
       <r>   15.4454    0.0000 </r>
       <r>   17.4051    0.0000 </r>
      </set>
      <set comment="kpoint 27">
       <r>   -1.5673    1.0000 </r>
       <r>    1.6034    1.0000 </r>
       <r>    5.9145    1.0000 </r>
       <r>    7.0383    1.0000 </r>
       <r>    8.3552    1.0000 </r>
       <r>    9.2469    0.2132 </r>
       <r>    9.6209   -0.0035 </r>
       <r>    9.9813   -0.0000 </r>
       <r>   12.1344   -0.0000 </r>
       <r>   13.0050   -0.0000 </r>
       <r>   13.8468   -0.0000 </r>
       <r>   14.1958   -0.0000 </r>
       <r>   15.7092    0.0000 </r>
       <r>   17.1617    0.0000 </r>
      </set>
      <set comment="kpoint 28">
       <r>   -1.2398    1.0000 </r>
       <r>    1.0278    1.0000 </r>
       <r>    6.2179    1.0000 </r>
       <r>    7.3378    1.0000 </r>
       <r>    8.1741    1.0000 </r>
       <r>    9.1708    0.5139 </r>
       <r>    9.4398   -0.0340 </r>
       <r>    9.8161   -0.0000 </r>
       <r>   11.7177   -0.0000 </r>
       <r>   12.5058   -0.0000 </r>
       <r>   14.5012   -0.0000 </r>
       <r>   14.9280    0.0000 </r>
       <r>   16.0417    0.0000 </r>
       <r>   16.6216    0.0000 </r>
      </set>
      <set comment="kpoint 29">
       <r>   -0.8697    1.0000 </r>
       <r>    0.4920    1.0000 </r>
       <r>    6.5596    1.0000 </r>
       <r>    7.6776    1.0000 </r>
       <r>    7.7761    1.0000 </r>
       <r>    8.9387    1.0351 </r>
       <r>    9.3694   -0.0226 </r>
       <r>    9.9249   -0.0000 </r>
       <r>   11.4601   -0.0000 </r>
       <r>   12.0588   -0.0000 </r>
       <r>   14.8466    0.0000 </r>
       <r>   15.8848    0.0000 </r>
       <r>   16.1197    0.0000 </r>
       <r>   16.5683    0.0000 </r>
      </set>
      <set comment="kpoint 30">
       <r>   -0.4574    1.0000 </r>
       <r>   -0.0033    1.0000 </r>
       <r>    6.9375    1.0000 </r>
       <r>    7.3473    1.0000 </r>
       <r>    8.0576    1.0000 </r>
       <r>    8.4780    1.0000 </r>
       <r>    9.6334   -0.0027 </r>
       <r>    9.8553   -0.0000 </r>
       <r>   11.4576   -0.0000 </r>
       <r>   11.6899   -0.0000 </r>
       <r>   15.2318    0.0000 </r>
       <r>   15.6563    0.0000 </r>
       <r>   16.4709    0.0000 </r>
       <r>   16.9169    0.0000 </r>
      </set>
      <set comment="kpoint 31">
       <r>   -2.3348    1.0000 </r>
       <r>    4.3719    1.0000 </r>
       <r>    4.3719    1.0000 </r>
       <r>    6.3400    1.0000 </r>
       <r>    7.8763    1.0000 </r>
       <r>    9.8234   -0.0000 </r>
       <r>    9.8234   -0.0000 </r>
       <r>   10.8726   -0.0000 </r>
       <r>   12.6465   -0.0000 </r>
       <r>   12.6465   -0.0000 </r>
       <r>   14.4100   -0.0000 </r>
       <r>   14.4100   -0.0000 </r>
       <r>   15.6190    0.0000 </r>
       <r>   16.9960    0.0000 </r>
      </set>
      <set comment="kpoint 32">
       <r>   -2.1810    1.0000 </r>
       <r>    3.6587    1.0000 </r>
       <r>    4.5167    1.0000 </r>
       <r>    6.4796    1.0000 </r>
       <r>    7.9981    1.0000 </r>
       <r>    9.9506   -0.0000 </r>
       <r>   10.2228   -0.0000 </r>
       <r>   10.7899   -0.0000 </r>
       <r>   11.9472   -0.0000 </r>
       <r>   12.7888   -0.0000 </r>
       <r>   13.8552   -0.0000 </r>
       <r>   14.5532   -0.0000 </r>
       <r>   15.4064    0.0000 </r>
       <r>   17.5538    0.0000 </r>
      </set>
      <set comment="kpoint 33">
       <r>   -1.9834    1.0000 </r>
       <r>    2.9740    1.0000 </r>
       <r>    4.7025    1.0000 </r>
       <r>    6.6591    1.0000 </r>
       <r>    8.1283    1.0000 </r>
       <r>    9.6290   -0.0030 </r>
       <r>   10.1068   -0.0000 </r>
       <r>   11.2858   -0.0000 </r>
       <r>   11.7962   -0.0000 </r>
       <r>   12.9717   -0.0000 </r>
       <r>   13.2987   -0.0000 </r>
       <r>   14.7407    0.0000 </r>
       <r>   14.9118    0.0000 </r>
       <r>   17.6162    0.0000 </r>
      </set>
      <set comment="kpoint 34">
       <r>   -1.7424    1.0000 </r>
       <r>    2.3234    1.0000 </r>
       <r>    4.9292    1.0000 </r>
       <r>    6.8786    1.0000 </r>
       <r>    8.1882    1.0000 </r>
       <r>    9.1764    0.4899 </r>
       <r>   10.2808   -0.0000 </r>
       <r>   10.6638   -0.0000 </r>
       <r>   12.7730   -0.0000 </r>
       <r>   12.8295   -0.0000 </r>
       <r>   13.1950   -0.0000 </r>
       <r>   14.3721   -0.0000 </r>
       <r>   14.9790    0.0000 </r>
       <r>   17.0006    0.0000 </r>
      </set>
      <set comment="kpoint 35">
       <r>   -1.4581    1.0000 </r>
       <r>    1.7098    1.0000 </r>
       <r>    5.1962    1.0000 </r>
       <r>    7.1381    1.0000 </r>
       <r>    7.9847    1.0000 </r>
       <r>    9.0600    0.9061 </r>
       <r>   10.0820   -0.0000 </r>
       <r>   10.4453   -0.0000 </r>
       <r>   12.3174   -0.0000 </r>
       <r>   13.4587   -0.0000 </r>
       <r>   13.8413   -0.0000 </r>
       <r>   13.8656   -0.0000 </r>
       <r>   15.2893    0.0000 </r>
       <r>   16.4216    0.0000 </r>
      </set>
      <set comment="kpoint 36">
       <r>   -1.1309    1.0000 </r>
       <r>    1.1348    1.0000 </r>
       <r>    5.5032    1.0000 </r>
       <r>    7.4378    1.0000 </r>
       <r>    7.5631    1.0000 </r>
       <r>    9.2334    0.2607 </r>
       <r>    9.5404   -0.0132 </r>
       <r>   10.5308   -0.0000 </r>
       <r>   12.0074   -0.0000 </r>
       <r>   13.3385   -0.0000 </r>
       <r>   13.7627   -0.0000 </r>
       <r>   14.8161    0.0000 </r>
       <r>   15.7574    0.0000 </r>
       <r>   15.8807    0.0000 </r>
      </set>
      <set comment="kpoint 37">
       <r>   -0.7611    1.0000 </r>
       <r>    0.5995    1.0000 </r>
       <r>    5.8491    1.0000 </r>
       <r>    7.1001    1.0000 </r>
       <r>    7.7777    1.0000 </r>
       <r>    9.0391    0.9507 </r>
       <r>    9.5156   -0.0182 </r>
       <r>   10.4351   -0.0000 </r>
       <r>   11.9502   -0.0000 </r>
       <r>   12.8757   -0.0000 </r>
       <r>   14.1069   -0.0000 </r>
       <r>   15.3783    0.0000 </r>
       <r>   15.4873    0.0000 </r>
       <r>   16.5749    0.0000 </r>
      </set>
      <set comment="kpoint 38">
       <r>   -0.3491    1.0000 </r>
       <r>    0.1046    1.0000 </r>
       <r>    6.2328    1.0000 </r>
       <r>    6.6516    1.0000 </r>
       <r>    8.1578    1.0000 </r>
       <r>    8.5783    1.0001 </r>
       <r>    9.8410   -0.0000 </r>
       <r>   10.1699   -0.0000 </r>
       <r>   12.1375   -0.0000 </r>
       <r>   12.4666   -0.0000 </r>
       <r>   14.4912   -0.0000 </r>
       <r>   14.9151    0.0000 </r>
       <r>   15.9589    0.0000 </r>
       <r>   16.3969    0.0000 </r>
      </set>
      <set comment="kpoint 39">
       <r>   -2.0273    1.0000 </r>
       <r>    3.8047    1.0000 </r>
       <r>    3.8047    1.0000 </r>
       <r>    6.6192    1.0000 </r>
       <r>    8.0864    1.0000 </r>
       <r>    9.6087   -0.0044 </r>
       <r>   10.9068   -0.0000 </r>
       <r>   10.9068   -0.0000 </r>
       <r>   12.0892   -0.0000 </r>
       <r>   12.0892   -0.0000 </r>
       <r>   14.0101   -0.0000 </r>
       <r>   14.0101   -0.0000 </r>
       <r>   15.8780    0.0000 </r>
       <r>   17.4225    0.0000 </r>
      </set>
      <set comment="kpoint 40">
       <r>   -1.8300    1.0000 </r>
       <r>    3.1211    1.0000 </r>
       <r>    3.9922    1.0000 </r>
       <r>    6.7988    1.0000 </r>
       <r>    8.1046    1.0000 </r>
       <r>    9.1279    0.6894 </r>
       <r>   11.0426   -0.0000 </r>
       <r>   11.4273   -0.0000 </r>
       <r>   11.8939   -0.0000 </r>
       <r>   12.2714   -0.0000 </r>
       <r>   13.4746   -0.0000 </r>
       <r>   14.2190   -0.0000 </r>
       <r>   15.7072    0.0000 </r>
       <r>   16.9200    0.0000 </r>
      </set>
      <set comment="kpoint 41">
       <r>   -1.5892    1.0000 </r>
       <r>    2.4715    1.0000 </r>
       <r>    4.2209    1.0000 </r>
       <r>    7.0184    1.0000 </r>
       <r>    7.8675    1.0000 </r>
       <r>    8.9732    1.0255 </r>
       <r>   10.8051   -0.0000 </r>
       <r>   11.1710   -0.0000 </r>
       <r>   12.4941   -0.0000 </r>
       <r>   12.8842   -0.0000 </r>
       <r>   12.9939   -0.0000 </r>
       <r>   14.5032   -0.0000 </r>
       <r>   15.2489    0.0000 </r>
       <r>   16.3007    0.0000 </r>
      </set>
      <set comment="kpoint 42">
       <r>   -1.3053    1.0000 </r>
       <r>    1.8587    1.0000 </r>
       <r>    4.4904    1.0000 </r>
       <r>    7.2780    1.0000 </r>
       <r>    7.4131    1.0000 </r>
       <r>    9.1095    0.7581 </r>
       <r>   10.2230   -0.0000 </r>
       <r>   11.2246   -0.0000 </r>
       <r>   12.6475   -0.0000 </r>
       <r>   12.7572   -0.0000 </r>
       <r>   13.8025   -0.0000 </r>
       <r>   14.7442    0.0000 </r>
       <r>   14.9345    0.0000 </r>
       <r>   15.7199    0.0000 </r>
      </set>
      <set comment="kpoint 43">
       <r>   -0.9785    1.0000 </r>
       <r>    1.2844    1.0000 </r>
       <r>    4.8003    1.0000 </r>
       <r>    6.9127    1.0000 </r>
       <r>    7.5778    1.0000 </r>
       <r>    9.3655   -0.0201 </r>
       <r>    9.6811   -0.0010 </r>
       <r>   11.0955   -0.0000 </r>
       <r>   12.5498   -0.0000 </r>
       <r>   13.0605   -0.0000 </r>
       <r>   14.2497   -0.0000 </r>
       <r>   14.4929   -0.0000 </r>
       <r>   15.1777    0.0000 </r>
       <r>   15.6662    0.0000 </r>
      </set>
      <set comment="kpoint 44">
       <r>   -0.6091    1.0000 </r>
       <r>    0.7498    1.0000 </r>
       <r>    5.1500    1.0000 </r>
       <r>    6.4242    1.0000 </r>
       <r>    7.9178    1.0000 </r>
       <r>    9.1797    0.4760 </r>
       <r>    9.6817   -0.0010 </r>
       <r>   10.7900   -0.0000 </r>
       <r>   12.6989   -0.0000 </r>
       <r>   13.4041   -0.0000 </r>
       <r>   13.7846   -0.0000 </r>
       <r>   14.6748    0.0000 </r>
       <r>   14.9761    0.0000 </r>
       <r>   16.2864    0.0000 </r>
      </set>
      <set comment="kpoint 45">
       <r>   -0.1976    1.0000 </r>
       <r>    0.2555    1.0000 </r>
       <r>    5.5384    1.0000 </r>
       <r>    5.9641    1.0000 </r>
       <r>    8.2981    1.0000 </r>
       <r>    8.7187    1.0030 </r>
       <r>   10.0372   -0.0000 </r>
       <r>   10.4158   -0.0000 </r>
       <r>   12.9898   -0.0000 </r>
       <r>   13.3603   -0.0000 </r>
       <r>   13.7878   -0.0000 </r>
       <r>   14.2114   -0.0000 </r>
       <r>   15.4030    0.0000 </r>
       <r>   15.8340    0.0000 </r>
      </set>
      <set comment="kpoint 46">
       <r>   -1.6330    1.0000 </r>
       <r>    3.3100    1.0000 </r>
       <r>    3.3100    1.0000 </r>
       <r>    6.9784    1.0000 </r>
       <r>    7.8281    1.0000 </r>
       <r>    8.9420    1.0348 </r>
       <r>   11.6094   -0.0000 </r>
       <r>   11.6094   -0.0000 </r>
       <r>   11.9854   -0.0000 </r>
       <r>   11.9854   -0.0000 </r>
       <r>   13.7290   -0.0000 </r>
       <r>   13.7290   -0.0000 </r>
       <r>   16.2114    0.0000 </r>
       <r>   16.2602    0.0000 </r>
      </set>
      <set comment="kpoint 47">
       <r>   -1.3926    1.0000 </r>
       <r>    2.6616    1.0000 </r>
       <r>    3.5404    1.0000 </r>
       <r>    7.1981    1.0000 </r>
       <r>    7.3366    1.0000 </r>
       <r>    9.0416    0.9460 </r>
       <r>   10.9867   -0.0000 </r>
       <r>   11.8316   -0.0000 </r>
       <r>   12.0027   -0.0000 </r>
       <r>   12.8630   -0.0000 </r>
       <r>   13.3594   -0.0000 </r>
       <r>   14.1275   -0.0000 </r>
       <r>   15.6392    0.0000 </r>
       <r>   16.0854    0.0000 </r>
      </set>
      <set comment="kpoint 48">
       <r>   -1.1091    1.0000 </r>
       <r>    2.0499    1.0000 </r>
       <r>    3.8120    1.0000 </r>
       <r>    6.7976    1.0000 </r>
       <r>    7.4579    1.0000 </r>
       <r>    9.2625    0.1631 </r>
       <r>   10.4043   -0.0000 </r>
       <r>   11.8350   -0.0000 </r>
       <r>   12.0942   -0.0000 </r>
       <r>   13.2333   -0.0000 </r>
       <r>   13.5406   -0.0000 </r>
       <r>   14.8014    0.0000 </r>
       <r>   15.0570    0.0000 </r>
       <r>   15.6694    0.0000 </r>
      </set>
      <set comment="kpoint 49">
       <r>   -0.7828    1.0000 </r>
       <r>    1.4765    1.0000 </r>
       <r>    4.1244    1.0000 </r>
       <r>    6.2690    1.0000 </r>
       <r>    7.7579    1.0000 </r>
       <r>    9.5480   -0.0119 </r>
       <r>    9.8622   -0.0000 </r>
       <r>   11.4892   -0.0000 </r>
       <r>   12.3971   -0.0000 </r>
       <r>   13.3503   -0.0000 </r>
       <r>   14.0177   -0.0000 </r>
       <r>   14.5141   -0.0000 </r>
       <r>   15.2042    0.0000 </r>
       <r>   15.7481    0.0000 </r>
      </set>
      <set comment="kpoint 50">
       <r>   -0.4140    1.0000 </r>
       <r>    0.9427    1.0000 </r>
       <r>    4.4771    1.0000 </r>
       <r>    5.7677    1.0000 </r>
       <r>    8.0981    1.0000 </r>
       <r>    9.3605   -0.0166 </r>
       <r>    9.8805   -0.0000 </r>
       <r>   11.0744   -0.0000 </r>
       <r>   12.7404   -0.0000 </r>
       <r>   13.6053   -0.0000 </r>
       <r>   14.0108   -0.0000 </r>
       <r>   14.4272   -0.0000 </r>
       <r>   14.7489    0.0000 </r>
       <r>   15.7149    0.0000 </r>
      </set>
      <set comment="kpoint 51">
       <r>   -0.0032    1.0000 </r>
       <r>    0.4493    1.0000 </r>
       <r>    4.8694    1.0000 </r>
       <r>    5.3002    1.0000 </r>
       <r>    8.4785    1.0000 </r>
       <r>    8.8993    1.0327 </r>
       <r>   10.2515   -0.0000 </r>
       <r>   10.6535   -0.0000 </r>
       <r>   13.1237   -0.0000 </r>
       <r>   13.5473   -0.0000 </r>
       <r>   13.9377   -0.0000 </r>
       <r>   14.3230   -0.0000 </r>
       <r>   14.8348    0.0000 </r>
       <r>   15.2618    0.0000 </r>
      </set>
      <set comment="kpoint 52">
       <r>   -1.1527    1.0000 </r>
       <r>    2.8935    1.0000 </r>
       <r>    2.8935    1.0000 </r>
       <r>    6.7589    1.0000 </r>
       <r>    7.4180    1.0000 </r>
       <r>    9.2268    0.2850 </r>
       <r>   11.2088   -0.0000 </r>
       <r>   11.2088   -0.0000 </r>
       <r>   12.6517   -0.0000 </r>
       <r>   12.6517   -0.0000 </r>
       <r>   13.9872   -0.0000 </r>
       <r>   13.9872   -0.0000 </r>
       <r>   15.0167    0.0000 </r>
       <r>   16.6270    0.0000 </r>
      </set>
      <set comment="kpoint 53">
       <r>   -0.8697    1.0000 </r>
       <r>    2.2831    1.0000 </r>
       <r>    3.1669    1.0000 </r>
       <r>    6.1906    1.0000 </r>
       <r>    7.6779    1.0000 </r>
       <r>    9.4765   -0.0271 </r>
       <r>   10.6258   -0.0000 </r>
       <r>   11.4710   -0.0000 </r>
       <r>   12.2639   -0.0000 </r>
       <r>   13.1094   -0.0000 </r>
       <r>   14.0805   -0.0000 </r>
       <r>   14.4335   -0.0000 </r>
       <r>   14.8817    0.0000 </r>
       <r>   16.1472    0.0000 </r>
      </set>
      <set comment="kpoint 54">
       <r>   -0.5440    1.0000 </r>
       <r>    1.7109    1.0000 </r>
       <r>    3.4815    1.0000 </r>
       <r>    5.6486    1.0000 </r>
       <r>    7.9781    1.0000 </r>
       <r>    9.7753   -0.0001 </r>
[...]
       <r>    2.1576    1.0000 </r>
       <r>    3.4760    1.0000 </r>
       <r>    3.4760    1.0000 </r>
       <r>    4.2712    1.0000 </r>
       <r>    4.9443    1.0000 </r>
       <r>    5.7325    1.0000 </r>
       <r>    5.7325    1.0000 </r>
       <r>    7.0236    1.0000 </r>
       <r>   18.1264    0.0000 </r>
       <r>   18.8157    0.0000 </r>
       <r>   18.8157    0.0000 </r>
       <r>   19.2539    0.0000 </r>
       <r>   19.2541    0.0000 </r>
       <r>   19.4694    0.0000 </r>
      </set>
      <set comment="kpoint 281">
       <r>    2.5587    1.0000 </r>
       <r>    2.9990    1.0000 </r>
       <r>    3.8584    1.0000 </r>
       <r>    4.2307    1.0000 </r>
       <r>    4.9018    1.0000 </r>
       <r>    5.2718    1.0000 </r>
       <r>    6.1197    1.0000 </r>
       <r>    6.5509    1.0000 </r>
       <r>   18.4554    0.0000 </r>
       <r>   18.7455    0.0000 </r>
       <r>   19.3595    0.0000 </r>
       <r>   19.4482    0.0000 </r>
       <r>   19.5437    0.0000 </r>
       <r>   19.8490    0.0000 </r>
      </set>
      <set comment="kpoint 282">
       <r>    2.9571    1.0000 </r>
       <r>    3.3927    1.0000 </r>
       <r>    3.3927    1.0000 </r>
       <r>    3.8171    1.0000 </r>
       <r>    5.2301    1.0000 </r>
       <r>    5.6498    1.0000 </r>
       <r>    5.6498    1.0000 </r>
       <r>    6.0786    1.0000 </r>
       <r>   18.8140    0.0000 </r>
       <r>   19.1584    0.0000 </r>
       <r>   19.1584    0.0000 </r>
       <r>   19.5260    0.0000 </r>
       <r>   20.1890    0.0000 </r>
       <r>   20.2585    0.0000 </r>
      </set>
      <set comment="kpoint 283">
       <r>    2.5165    1.0000 </r>
       <r>    3.8169    1.0000 </r>
       <r>    3.8169    1.0000 </r>
       <r>    3.8169    1.0000 </r>
       <r>    5.2304    1.0000 </r>
       <r>    5.2304    1.0000 </r>
       <r>    5.2304    1.0000 </r>
       <r>    6.5102    1.0000 </r>
       <r>   19.1961    0.0000 </r>
       <r>   19.1961    0.0000 </r>
       <r>   19.1961    0.0000 </r>
       <r>   19.7803    0.0000 </r>
       <r>   19.7803    0.0000 </r>
       <r>   19.7804    0.0000 </r>
      </set>
      <set comment="kpoint 284">
       <r>    2.9151    1.0000 </r>
       <r>    3.3509    1.0000 </r>
       <r>    4.1490    1.0000 </r>
       <r>    4.1490    1.0000 </r>
       <r>    4.8176    1.0000 </r>
       <r>    4.8176    1.0000 </r>
       <r>    5.6087    1.0000 </r>
       <r>    6.0377    1.0000 </r>
       <r>   19.4607    0.0000 </r>
       <r>   19.4607    0.0000 </r>
       <r>   19.8812    0.0000 </r>
       <r>   19.8816    0.0000 </r>
       <r>   20.1324    0.0000 </r>
       <r>   20.2471    0.0000 </r>
      </set>
      <set comment="kpoint 285">
       <r>    3.3092    1.0000 </r>
       <r>    3.7342    1.0000 </r>
       <r>    3.7342    1.0000 </r>
       <r>    4.1082    1.0000 </r>
       <r>    4.7753    1.0000 </r>
       <r>    5.1470    1.0000 </r>
       <r>    5.1470    1.0000 </r>
       <r>    5.5674    1.0000 </r>
       <r>   19.8321    0.0000 </r>
       <r>   20.0987    0.0000 </r>
       <r>   20.1008    0.0000 </r>
       <r>   20.4442    0.0000 </r>
       <r>   20.5118    0.0000 </r>
       <r>   20.5332    0.0000 </r>
      </set>
      <set comment="kpoint 286">
       <r>    3.6927    1.0000 </r>
       <r>    4.0674    1.0000 </r>
       <r>    4.0674    1.0000 </r>
       <r>    4.0674    1.0000 </r>
       <r>    4.7330    1.0000 </r>
       <r>    4.7330    1.0000 </r>
       <r>    4.7330    1.0000 </r>
       <r>    5.1053    1.0000 </r>
       <r>   20.7474    0.0000 </r>
       <r>   20.7533    0.0000 </r>
       <r>   20.7655    0.0000 </r>
       <r>   20.7963    0.0000 </r>
       <r>   20.8239    0.0000 </r>
       <r>   20.8738    0.0000 </r>
      </set>
     </set>
    </set>
   </array>
  </eigenvalues>
  <separator name="orbital magnetization" >
   <v name="MAGDIPOLOUT">      0.00000000      0.00000000      0.00000000</v>
  </separator>
  <dos>
   <i name="efermi">      9.17403380 </i>
   <total>
    <array>
     <dimension dim="1">gridpoints</dimension>
     <dimension dim="2">spin</dimension>
     <field>energy</field>
     <field>total</field>
     <field>integrated</field>
     <set>
      <set comment="spin 1">
       <r>    -4.7314     0.0000     0.0000 </r>
       <r>    -4.6394     0.0000     0.0000 </r>
       <r>    -4.5474     0.0000     0.0000 </r>
       <r>    -4.4554     0.0000     0.0000 </r>
       <r>    -4.3633    -0.0000    -0.0000 </r>
       <r>    -4.2713    -0.0000    -0.0000 </r>
       <r>    -4.1793    -0.0000    -0.0000 </r>
       <r>    -4.0873    -0.0000    -0.0000 </r>
       <r>    -3.9953    -0.0000    -0.0000 </r>
       <r>    -3.9033    -0.0000    -0.0000 </r>
       <r>    -3.8112    -0.0000    -0.0000 </r>
       <r>    -3.7192    -0.0000    -0.0000 </r>
       <r>    -3.6272    -0.0000    -0.0000 </r>
       <r>    -3.5352    -0.0000    -0.0000 </r>
       <r>    -3.4432    -0.0000    -0.0000 </r>
       <r>    -3.3511    -0.0000    -0.0000 </r>
       <r>    -3.2591    -0.0000    -0.0000 </r>
       <r>    -3.1671    -0.0002    -0.0000 </r>
       <r>    -3.0751    -0.0009    -0.0001 </r>
       <r>    -2.9831    -0.0030    -0.0004 </r>
       <r>    -2.8911    -0.0048    -0.0008 </r>
       <r>    -2.7990     0.0037    -0.0005 </r>
       <r>    -2.7070     0.0371     0.0029 </r>
       <r>    -2.6150     0.0950     0.0117 </r>
       <r>    -2.5230     0.1576     0.0262 </r>
       <r>    -2.4310     0.2079     0.0453 </r>
       <r>    -2.3390     0.2453     0.0679 </r>
       <r>    -2.2469     0.2758     0.0932 </r>
       <r>    -2.1549     0.3037     0.1212 </r>
       <r>    -2.0629     0.3285     0.1514 </r>
       <r>    -1.9709     0.3516     0.1838 </r>
       <r>    -1.8789     0.3764     0.2184 </r>
       <r>    -1.7869     0.3960     0.2549 </r>
       <r>    -1.6948     0.4126     0.2928 </r>
       <r>    -1.6028     0.4379     0.3331 </r>
       <r>    -1.5108     0.4582     0.3753 </r>
       <r>    -1.4188     0.4662     0.4182 </r>
       <r>    -1.3268     0.4850     0.4628 </r>
       <r>    -1.2347     0.5134     0.5100 </r>
       <r>    -1.1427     0.5278     0.5586 </r>
       <r>    -1.0507     0.5295     0.6073 </r>
       <r>    -0.9587     0.5427     0.6573 </r>
       <r>    -0.8667     0.5783     0.7105 </r>
       <r>    -0.7747     0.6008     0.7658 </r>
       <r>    -0.6826     0.5873     0.8198 </r>
       <r>    -0.5906     0.5892     0.8740 </r>
       <r>    -0.4986     0.6318     0.9322 </r>
       <r>    -0.4066     0.6617     0.9931 </r>
       <r>    -0.3146     0.6571     1.0535 </r>
       <r>    -0.2226     0.6513     1.1135 </r>
       <r>    -0.1305     0.6627     1.1744 </r>
       <r>    -0.0385     0.6891     1.2378 </r>
       <r>     0.0535     0.7230     1.3044 </r>
       <r>     0.1455     0.7414     1.3726 </r>
       <r>     0.2375     0.7247     1.4393 </r>
       <r>     0.3295     0.7001     1.5037 </r>
       <r>     0.4216     0.7291     1.5708 </r>
       <r>     0.5136     0.8012     1.6445 </r>
       <r>     0.6056     0.8218     1.7201 </r>
       <r>     0.6976     0.7781     1.7917 </r>
       <r>     0.7896     0.7584     1.8615 </r>
       <r>     0.8816     0.7931     1.9345 </r>
       <r>     0.9737     0.8336     2.0112 </r>
       <r>     1.0657     0.8475     2.0892 </r>
       <r>     1.1577     0.8571     2.1680 </r>
       <r>     1.2497     0.8757     2.2486 </r>
       <r>     1.3417     0.8625     2.3280 </r>
       <r>     1.4338     0.8323     2.4046 </r>
       <r>     1.5258     0.8512     2.4829 </r>
       <r>     1.6178     0.9110     2.5667 </r>
       <r>     1.7098     0.9635     2.6554 </r>
       <r>     1.8018     0.9677     2.7444 </r>
       <r>     1.8938     0.9122     2.8284 </r>
       <r>     1.9859     0.8693     2.9084 </r>
       <r>     2.0779     0.9034     2.9915 </r>
       <r>     2.1699     0.9822     3.0819 </r>
       <r>     2.2619     1.0329     3.1769 </r>
       <r>     2.3539     1.0117     3.2700 </r>
       <r>     2.4459     0.9651     3.3588 </r>
       <r>     2.5380     0.9773     3.4487 </r>
       <r>     2.6300     1.0182     3.5424 </r>
       <r>     2.7220     1.0095     3.6353 </r>
       <r>     2.8140     0.9905     3.7265 </r>
       <r>     2.9060     1.0302     3.8213 </r>
       <r>     2.9980     1.1001     3.9225 </r>
       <r>     3.0901     1.1292     4.0264 </r>
       <r>     3.1821     1.0927     4.1269 </r>
       <r>     3.2741     1.0333     4.2220 </r>
       <r>     3.3661     1.0076     4.3147 </r>
       <r>     3.4581     1.0527     4.4116 </r>
       <r>     3.5502     1.1526     4.5177 </r>
       <r>     3.6422     1.2135     4.6293 </r>
       <r>     3.7342     1.1868     4.7385 </r>
       <r>     3.8262     1.1361     4.8431 </r>
       <r>     3.9182     1.1162     4.9458 </r>
       <r>     4.0102     1.1285     5.0496 </r>
       <r>     4.1023     1.1793     5.1581 </r>
       <r>     4.1943     1.2553     5.2736 </r>
       <r>     4.2863     1.2732     5.3908 </r>
       <r>     4.3783     1.2055     5.5017 </r>
       <r>     4.4703     1.1687     5.6093 </r>
       <r>     4.5623     1.1980     5.7195 </r>
       <r>     4.6544     1.1937     5.8294 </r>
       <r>     4.7464     1.1564     5.9358 </r>
       <r>     4.8384     1.1507     6.0416 </r>
       <r>     4.9304     1.1719     6.1495 </r>
       <r>     5.0224     1.2094     6.2608 </r>
       <r>     5.1144     1.2850     6.3790 </r>
       <r>     5.2065     1.3681     6.5049 </r>
       <r>     5.2985     1.3590     6.6299 </r>
       <r>     5.3905     1.2439     6.7444 </r>
       <r>     5.4825     1.1551     6.8507 </r>
       <r>     5.5745     1.2175     6.9627 </r>
       <r>     5.6666     1.3813     7.0898 </r>
       <r>     5.7586     1.4712     7.2252 </r>
       <r>     5.8506     1.4376     7.3575 </r>
       <r>     5.9426     1.3784     7.4843 </r>
       <r>     6.0346     1.3474     7.6083 </r>
       <r>     6.1266     1.3801     7.7353 </r>
       <r>     6.2187     1.4925     7.8726 </r>
       <r>     6.3107     1.5438     8.0147 </r>
       <r>     6.4027     1.4332     8.1466 </r>
       <r>     6.4947     1.3135     8.2674 </r>
       <r>     6.5867     1.3398     8.3907 </r>
       <r>     6.6787     1.4137     8.5208 </r>
       <r>     6.7708     1.3896     8.6487 </r>
       <r>     6.8628     1.3277     8.7708 </r>
       <r>     6.9548     1.3299     8.8932 </r>
       <r>     7.0468     1.3392     9.0164 </r>
       <r>     7.1388     1.2952     9.1356 </r>
       <r>     7.2308     1.2900     9.2543 </r>
       <r>     7.3229     1.3270     9.3764 </r>
       <r>     7.4149     1.2916     9.4953 </r>
       <r>     7.5069     1.2747     9.6126 </r>
       <r>     7.5989     1.3858     9.7401 </r>
       <r>     7.6909     1.4587     9.8743 </r>
       <r>     7.7830     1.3820    10.0015 </r>
       <r>     7.8750     1.3315    10.1240 </r>
       <r>     7.9670     1.4314    10.2557 </r>
       <r>     8.0590     1.5551    10.3988 </r>
       <r>     8.1510     1.5932    10.5454 </r>
       <r>     8.2430     1.5783    10.6906 </r>
       <r>     8.3351     1.5442    10.8327 </r>
       <r>     8.4271     1.4994    10.9707 </r>
       <r>     8.5191     1.4441    11.1036 </r>
       <r>     8.6111     1.3700    11.2297 </r>
       <r>     8.7031     1.2967    11.3490 </r>
       <r>     8.7951     1.2801    11.4668 </r>
       <r>     8.8872     1.3239    11.5886 </r>
       <r>     8.9792     1.3616    11.7139 </r>
       <r>     9.0712     1.4089    11.8435 </r>
       <r>     9.1632     1.5148    11.9829 </r>
       <r>     9.2552     1.6093    12.1310 </r>
       <r>     9.3472     1.6047    12.2786 </r>
       <r>     9.4393     1.5118    12.4178 </r>
       <r>     9.5313     1.4088    12.5474 </r>
       <r>     9.6233     1.4033    12.6765 </r>
       <r>     9.7153     1.5308    12.8174 </r>
       <r>     9.8073     1.7050    12.9743 </r>
       <r>     9.8994     1.8218    13.1419 </r>
       <r>     9.9914     1.7964    13.3072 </r>
       <r>    10.0834     1.6462    13.4587 </r>
       <r>    10.1754     1.5015    13.5968 </r>
       <r>    10.2674     1.4288    13.7283 </r>
       <r>    10.3594     1.4205    13.8590 </r>
       <r>    10.4515     1.4571    13.9931 </r>
       <r>    10.5435     1.5242    14.1334 </r>
       <r>    10.6355     1.6067    14.2812 </r>
       <r>    10.7275     1.6832    14.4361 </r>
       <r>    10.8195     1.7398    14.5962 </r>
       <r>    10.9115     1.7078    14.7533 </r>
       <r>    11.0036     1.5926    14.8999 </r>
       <r>    11.0956     1.5316    15.0408 </r>
       <r>    11.1876     1.4937    15.1783 </r>
       <r>    11.2796     1.4099    15.3080 </r>
       <r>    11.3716     1.4656    15.4429 </r>
       <r>    11.4636     1.6948    15.5988 </r>
       <r>    11.5557     1.8061    15.7650 </r>
       <r>    11.6477     1.7637    15.9273 </r>
       <r>    11.7397     1.7801    16.0911 </r>
       <r>    11.8317     1.7611    16.2531 </r>
       <r>    11.9237     1.5667    16.3973 </r>
       <r>    12.0158     1.4547    16.5312 </r>
       <r>    12.1078     1.6388    16.6820 </r>
       <r>    12.1998     1.8602    16.8531 </r>
       <r>    12.2918     1.8287    17.0214 </r>
       <r>    12.3838     1.6986    17.1777 </r>
       <r>    12.4758     1.6760    17.3319 </r>
       <r>    12.5679     1.6753    17.4861 </r>
       <r>    12.6599     1.6668    17.6395 </r>
       <r>    12.7519     1.7324    17.7989 </r>
       <r>    12.8439     1.8076    17.9652 </r>
       <r>    12.9359     1.8378    18.1343 </r>
       <r>    13.0279     1.8748    18.3068 </r>
       <r>    13.1200     1.8452    18.4766 </r>
       <r>    13.2120     1.6985    18.6329 </r>
       <r>    13.3040     1.6495    18.7847 </r>
       <r>    13.3960     1.8176    18.9519 </r>
       <r>    13.4880     1.9596    19.1323 </r>
       <r>    13.5800     1.8965    19.3068 </r>
       <r>    13.6721     1.7592    19.4686 </r>
       <r>    13.7641     1.6762    19.6229 </r>
       <r>    13.8561     1.6812    19.7776 </r>
       <r>    13.9481     1.8474    19.9476 </r>
       <r>    14.0401     2.0947    20.1403 </r>
       <r>    14.1322     2.1483    20.3380 </r>
       <r>    14.2242     1.9779    20.5200 </r>
       <r>    14.3162     1.8292    20.6883 </r>
       <r>    14.4082     1.8043    20.8544 </r>
       <r>    14.5002     1.8010    21.0201 </r>
       <r>    14.5922     1.8048    21.1861 </r>
       <r>    14.6843     1.9133    21.3622 </r>
       <r>    14.7763     2.0597    21.5517 </r>
       <r>    14.8683     2.0780    21.7429 </r>
       <r>    14.9603     1.9897    21.9260 </r>
       <r>    15.0523     1.9497    22.1054 </r>
       <r>    15.1443     2.0587    22.2949 </r>
       <r>    15.2364     2.2829    22.5049 </r>
       <r>    15.3284     2.4143    22.7271 </r>
       <r>    15.4204     2.2675    22.9357 </r>
       <r>    15.5124     2.0023    23.1200 </r>
       <r>    15.6044     1.9540    23.2998 </r>
       <r>    15.6964     2.1170    23.4946 </r>
       <r>    15.7885     2.1920    23.6963 </r>
       <r>    15.8805     2.1468    23.8938 </r>
       <r>    15.9725     2.1818    24.0946 </r>
       <r>    16.0645     2.2426    24.3010 </r>
       <r>    16.1565     2.1671    24.5004 </r>
       <r>    16.2486     1.9989    24.6843 </r>
       <r>    16.3406     1.8441    24.8540 </r>
       <r>    16.4326     1.7565    25.0156 </r>
       <r>    16.5246     1.7931    25.1806 </r>
       <r>    16.6166     1.9252    25.3578 </r>
       <r>    16.7086     1.9826    25.5402 </r>
       <r>    16.8007     1.8786    25.7131 </r>
       <r>    16.8927     1.7178    25.8711 </r>
       <r>    16.9847     1.6282    26.0210 </r>
       <r>    17.0767     1.5713    26.1656 </r>
       <r>    17.1687     1.4124    26.2955 </r>
       <r>    17.2607     1.2175    26.4076 </r>
       <r>    17.3528     1.1899    26.5171 </r>
       <r>    17.4448     1.2888    26.6356 </r>
       <r>    17.5368     1.2559    26.7512 </r>
       <r>    17.6288     1.0334    26.8463 </r>
       <r>    17.7208     0.8478    26.9243 </r>
       <r>    17.8128     0.8141    26.9992 </r>
       <r>    17.9049     0.7975    27.0726 </r>
       <r>    17.9969     0.7350    27.1402 </r>
       <r>    18.0889     0.7037    27.2050 </r>
       <r>    18.1809     0.7118    27.2705 </r>
       <r>    18.2729     0.7174    27.3365 </r>
       <r>    18.3650     0.6936    27.4003 </r>
       <r>    18.4570     0.6145    27.4569 </r>
       <r>    18.5490     0.5174    27.5045 </r>
       <r>    18.6410     0.4665    27.5474 </r>
       <r>    18.7330     0.4673    27.5904 </r>
       <r>    18.8250     0.4646    27.6332 </r>
       <r>    18.9171     0.3983    27.6698 </r>
       <r>    19.0091     0.3137    27.6987 </r>
       <r>    19.1011     0.3081    27.7270 </r>
       <r>    19.1931     0.3590    27.7601 </r>
       <r>    19.2851     0.3701    27.7941 </r>
       <r>    19.3771     0.3311    27.8246 </r>
       <r>    19.4692     0.2912    27.8514 </r>
       <r>    19.5612     0.2414    27.8736 </r>
       <r>    19.6532     0.1721    27.8894 </r>
       <r>    19.7452     0.1385    27.9022 </r>
       <r>    19.8372     0.1543    27.9164 </r>
       <r>    19.9292     0.1578    27.9309 </r>
       <r>    20.0213     0.1296    27.9428 </r>
       <r>    20.1133     0.1109    27.9530 </r>
       <r>    20.2053     0.1055    27.9627 </r>
       <r>    20.2973     0.0853    27.9706 </r>
       <r>    20.3893     0.0612    27.9762 </r>
       <r>    20.4814     0.0560    27.9814 </r>
       <r>    20.5734     0.0546    27.9864 </r>
       <r>    20.6654     0.0437    27.9904 </r>
       <r>    20.7574     0.0381    27.9939 </r>
       <r>    20.8494     0.0367    27.9973 </r>
       <r>    20.9414     0.0246    27.9995 </r>
       <r>    21.0335     0.0078    28.0003 </r>
       <r>    21.1255    -0.0006    28.0002 </r>
       <r>    21.2175    -0.0015    28.0001 </r>
       <r>    21.3095    -0.0006    28.0000 </r>
       <r>    21.4015    -0.0001    28.0000 </r>
       <r>    21.4935    -0.0000    28.0000 </r>
       <r>    21.5856    -0.0000    28.0000 </r>
       <r>    21.6776    -0.0000    28.0000 </r>
       <r>    21.7696    -0.0000    28.0000 </r>
       <r>    21.8616    -0.0000    28.0000 </r>
       <r>    21.9536    -0.0000    28.0000 </r>
       <r>    22.0456    -0.0000    28.0000 </r>
       <r>    22.1377    -0.0000    28.0000 </r>
       <r>    22.2297     0.0000    28.0000 </r>
       <r>    22.3217     0.0000    28.0000 </r>
       <r>    22.4137     0.0000    28.0000 </r>
       <r>    22.5057     0.0000    28.0000 </r>
       <r>    22.5978     0.0000    28.0000 </r>
       <r>    22.6898     0.0000    28.0000 </r>
       <r>    22.7818     0.0000    28.0000 </r>
       <r>    22.8738     0.0000    28.0000 </r>
      </set>
     </set>
    </array>
   </total>
  </dos>
 </calculation>
 <structure name="finalpos" >
  <crystal>
   <varray name="basis" >
    <v>       3.89954374       0.00000000       0.00000000 </v>
    <v>      -0.00000000       3.89954374       0.00000000 </v>
    <v>       0.00000000       0.00000000       3.89954374 </v>
   </varray>
   <i name="volume">     59.29818347 </i>
   <varray name="rec_basis" >
    <v>       0.25644026       0.00000000      -0.00000000 </v>
    <v>       0.00000000       0.25644026       0.00000000 </v>
    <v>      -0.00000000      -0.00000000       0.25644026 </v>
   </varray>
  </crystal>
  <varray name="positions" >
   <v>       0.00000000       0.00000000       0.00000000 </v>
   <v>       0.00000000       0.50000000       0.50000000 </v>
   <v>       0.50000000       0.00000000       0.50000000 </v>
   <v>       0.50000000       0.50000000       0.00000000 </v>
  </varray>
 </structure>
</modeling>
