ITEM: TIMESTEP
0
ITEM: NUMBER OF ATOMS
4
ITEM: BOX BOUNDS xy xz yz pp pp pp
0.0000000000000000e+00 4.2846393506000000e+00 0.0000000000000000e+00
0.0000000000000000e+00 4.2846393506000000e+00 -0.0000000000000000e+00
0.0000000000000000e+00 4.2846393506000000e+00 -0.0000000000000000e+00
ITEM: ATOMS id type xs ys zs fx fy fz
1 1 0 0 0 -2.77556e-17 2.77556e-17 -1.11022e-16
4 1 0.5 0 0.5 -4.16334e-17 -1.99493e-17 -1.52656e-16
3 1 0.5 0.5 0 -1.38778e-17 -2.86229e-17 -1.83881e-16
2 1 0 0.5 0.5 0 0 -5.55112e-17
ITEM: TIMESTEP
1
ITEM: NUMBER OF ATOMS
4
ITEM: BOX BOUNDS xy xz yz pp pp pp
0.0000000000000000e+00 4.2846393506000000e+00 0.0000000000000000e+00
0.0000000000000000e+00 4.2846393506000000e+00 -0.0000000000000000e+00
0.0000000000000000e+00 4.2846393506000000e+00 -0.0000000000000000e+00
ITEM: ATOMS id type xs ys zs fx fy fz
1 1 0 0 0 -2.77556e-17 2.77556e-17 -1.11022e-16
4 1 0.5 0 0.5 -4.16334e-17 -1.99493e-17 -1.52656e-16
3 1 0.5 0.5 0 -1.38778e-17 -2.86229e-17 -1.83881e-16
2 1 0 0.5 0.5 0 0 -5.55112e-17
