 vasp.6.4.2 20Jul23 (build Apr 22 2024 22:35:45) complex                         
 executed on             LinuxGNU date 2024.05.26  15:57:29
 running   14 mpi-ranks, with    2 threads/rank, on    1 nodes
 distrk:  each k-point on   14 cores,    1 groups
 distr:  one band on NCORE=   1 cores,   14 groups


--------------------------------------------------------------------------------------------------------


 INCAR:
   ALGO = Fast
   EDIFF = 1e-06
   ENCUT = 400
   IBRION = 2
   ISIF = 4
   ISMEAR = 1
   KSPACING = 0.08
   LCHARG = False
   LREAL = Auto
   LWAVE = False
   NELM = 60
   NELMIN = 4
   NSW = 100
   PREC = Accurate
   SIGMA = 0.2
   SYSTEM = Al fcc relaxation

 POTCAR:    PAW_PBE Al 04Jan2001                  
 POTCAR:    PAW_PBE Al 04Jan2001                  
   SHA256 =  17880443556af62b473fe41b62a467bd001ad55d2cabe504a3f22e34d4e9db96 Al/POTCAR             
   COPYR  = (c) Copyright 04Jan2001 Georg Kresse                                                    
   COPYR  = This file is part of the software VASP. Any use, copying, and all other rights are regul
   COPYR  = If you do not have a valid VASP license, you may not use, copy or distribute this file. 
   VRHFIN =Al: s2p1                                                                                 
   LEXCH  = PE                                                                                      
   EATOM  =    53.5387 eV,    3.9350 Ry                                                             
                                                                                                    
   TITEL  = PAW_PBE Al 04Jan2001                                                                    
   LULTRA =        F    use ultrasoft PP ?                                                          
   IUNSCR =        1    unscreen: 0-lin 1-nonlin 2-no                                               
   RPACOR =    1.500    partial core radius                                                         
   POMASS =   26.981; ZVAL   =    3.000    mass and valenz                                          
   RCORE  =    1.900    outmost cutoff radius                                                       
   RWIGS  =    2.650; RWIGS  =    1.402    wigner-seitz radius (au A)                               
   ENMAX  =  240.300; ENMIN  =  180.225 eV                                                          
   ICORE  =        2    local potential                                                             
   LCOR   =        T    correct aug charges                                                         
   LPAW   =        T    paw PP                                                                      
   EAUG   =  291.052                                                                                
   DEXC   =    0.000                                                                                
   RMAX   =    1.939    core radius for proj-oper                                                   
   RAUG   =    1.300    factor for augmentation sphere                                              
   RDEP   =    1.966    radius for radial grids                                                     
   RDEPT  =    1.856    core radius for aug-charge                                                  
                                                                                                    
   Atomic configuration                                                                             
    6 entries                                                                                       
     n  l   j            E        occ.                                                              
     1  0  0.50     -1511.1048   2.0000                                                             
     2  0  0.50      -108.1629   2.0000                                                             
     2  1  1.50       -69.6402   6.0000                                                             
     3  0  0.50        -7.7528   2.0000                                                             
     3  1  1.50        -2.7121   1.0000                                                             
     3  2  2.50        -2.7212   0.0000                                                             
   Description                                                                                      
     l       E           TYP  RCUT    TYP  RCUT                                                     
     0     -7.7528455     23  1.900                                                                 
     0     -3.3096929     23  1.900                                                                 
     1     -2.7120682     23  1.900                                                                 
     1     13.6058260     23  1.900                                                                 
     2     -2.7211652      7  1.900                                                                 
  local pseudopotential read in
  partial core-charges read in
  partial kinetic energy density read in
  atomic valenz-charges read in
  non local Contribution for L=           0  read in
    real space projection operators read in
  non local Contribution for L=           0  read in
    real space projection operators read in
  non local Contribution for L=           1  read in
    real space projection operators read in
  non local Contribution for L=           1  read in
    real space projection operators read in
    PAW grid and wavefunctions read in

   number of l-projection  operators is LMAX  =           4
   number of lm-projection operators is LMMAX =           8

 -----------------------------------------------------------------------------
|                                                                             |
|               ----> ADVICE to this user running VASP <----                  |
|                                                                             |
|     You have a (more or less) 'small supercell' and for smaller cells       |
|     it is recommended to use the reciprocal-space projection scheme!        |
|     The real-space optimization is not efficient for small cells and it     |
|     is also less accurate ...                                               |
|     Therefore, set LREAL=.FALSE. in the INCAR file.                         |
|                                                                             |
 -----------------------------------------------------------------------------

 Optimization of the real space projectors (new method)

 maximal supplied QI-value         = 19.84
 optimisation between [QCUT,QGAM] = [ 10.12, 20.44] = [ 28.68,116.96] Ry 
 Optimized for a Real-space Cutoff    1.38 Angstroem

   l    n(q)    QCUT    max X(q) W(low)/X(q) W(high)/X(q)  e(spline) 
   0      8    10.119   176.870    0.39E-04    0.93E-04    0.54E-07
   0      8    10.119   105.762    0.37E-04    0.91E-04    0.53E-07
   1      8    10.119    55.370    0.18E-03    0.13E-03    0.19E-06
   1      8    10.119    20.208    0.17E-03    0.12E-03    0.18E-06
  PAW_PBE Al 04Jan2001                  :
 energy of atom  1       EATOM=  -53.5387
 kinetic energy error for atom=    0.0005 (will be added to EATOM!!)


 POSCAR: Al4
  positions in direct lattice
  velocities in cartesian coordinates
 exchange correlation table for  LEXCH =        8
   RHO(1)=    0.500       N(1)  =     2000
   RHO(2)=  100.500       N(2)  =     4000



--------------------------------------------------------------------------------------------------------


 ion  position               nearest neighbor table
   1  0.000  0.000  0.000-   2 3.08   3 3.08   4 3.08   2 3.08   3 3.08   2 3.08   4 3.08   2 3.08
                             3 3.08   4 3.08   3 3.08   4 3.08
   2  0.000  0.500  0.500-   1 3.08   3 3.08   4 3.08   1 3.08   4 3.08   1 3.08   3 3.08   1 3.08
                             3 3.08   4 3.08   4 3.08   3 3.08
   3  0.500  0.000  0.500-   1 3.08   2 3.08   4 3.08   1 3.08   4 3.08   2 3.08   4 3.08   4 3.08
                             1 3.08   2 3.08   1 3.08   2 3.08
   4  0.500  0.500  0.000-   1 3.08   2 3.08   3 3.08   2 3.08   3 3.08   1 3.08   3 3.08   3 3.08
                             1 3.08   2 3.08   2 3.08   1 3.08

  LATTYP: Found a simple cubic cell.
 ALAT       =     4.3508051208
  
  Lattice vectors:
  
 A1 = (   4.3508051208,   0.0000000000,   0.0000000000)
 A2 = (  -0.0000000000,   4.3508051208,   0.0000000000)
 A3 = (   0.0000000000,   0.0000000000,   4.3508051208)


Analysis of symmetry for initial positions (statically):
=====================================================================
 Subroutine PRICEL returns following result:
 
  LATTYP: Found a face centered cubic cell.
 ALAT       =     4.3508051208
  
  Lattice vectors:
  
 A1 = (   2.1754025604,  -2.1754025604,   0.0000000000)
 A2 = (   2.1754025604,   0.0000000000,   2.1754025604)
 A3 = (   0.0000000000,  -2.1754025604,   2.1754025604)
 
   4 primitive cells build up your supercell.
 

 Routine SETGRP: Setting up the symmetry group for a 
 simple cubic supercell.


 Subroutine GETGRP returns: Found 48 space group operations
 (whereof 48 operations were pure point group operations)
 out of a pool of 48 trial point group operations.


The static configuration has the point symmetry O_h .


Analysis of symmetry for dynamics (positions and initial velocities):
=====================================================================
 Subroutine PRICEL returns following result:
 
  LATTYP: Found a face centered cubic cell.
 ALAT       =     4.3508051208
  
  Lattice vectors:
  
 A1 = (   2.1754025604,  -2.1754025604,   0.0000000000)
 A2 = (   2.1754025604,   0.0000000000,   2.1754025604)
 A3 = (   0.0000000000,  -2.1754025604,   2.1754025604)
 
   4 primitive cells build up your supercell.
 

 Routine SETGRP: Setting up the symmetry group for a 
 simple cubic supercell.


 Subroutine GETGRP returns: Found 48 space group operations
 (whereof 48 operations were pure point group operations)
 out of a pool of 48 trial point group operations.


The dynamic configuration has the point symmetry O_h .


 Subroutine INISYM returns: Found 48 space group operations
 (whereof 48 operations are pure point group operations),
 and found     4 'primitive' translations


----------------------------------------------------------------------------------------

                                     Primitive cell                                     

  volume of cell :      20.5896

  direct lattice vectors                    reciprocal lattice vectors
     2.175402560 -2.175402560  0.000000000     0.229842517 -0.229842517 -0.229842517
     2.175402560  0.000000000  2.175402560     0.229842517  0.229842517  0.229842517
     0.000000000 -2.175402560  2.175402560    -0.229842517 -0.229842517  0.229842517

  length of vectors
     3.076483805  3.076483805  3.076483805     0.398098917  0.398098917  0.398098917

  position of ions in fractional coordinates (direct lattice)
     0.000000000  0.000000000  0.000000000

  ion indices of the primitive-cell ions
   primitive index   ion index
                 1           1

----------------------------------------------------------------------------------------



 KPOINTS: Automatic kpoint scheme                 

Automatic generation of k-mesh.
 Grid dimensions read from file:
 generate k-points for:   19   19   19

 Generating k-lattice:

  Cartesian coordinates                     Fractional coordinates (reciprocal lattice)
     0.012096975  0.000000000 -0.000000000     0.052631579 -0.000000000  0.000000000
     0.000000000  0.012096975  0.000000000     0.000000000  0.052631579  0.000000000
    -0.000000000 -0.000000000  0.012096975     0.000000000  0.000000000  0.052631579

  Length of vectors
     0.012096975  0.012096975  0.012096975

  Shift w.r.t. Gamma in fractional coordinates (k-lattice)
     0.000000000  0.000000000  0.000000000

 
 Subroutine IBZKPT returns following result:
 ===========================================
 
 Found    220 irreducible k-points:
 
 Following reciprocal coordinates:
            Coordinates               Weight
  0.000000  0.000000  0.000000      1.000000
  0.052632  0.000000  0.000000      6.000000
  0.105263  0.000000  0.000000      6.000000
  0.157895  0.000000  0.000000      6.000000
  0.210526  0.000000  0.000000      6.000000
  0.263158  0.000000  0.000000      6.000000
  0.315789  0.000000  0.000000      6.000000
  0.368421  0.000000  0.000000      6.000000
  0.421053  0.000000  0.000000      6.000000
  0.473684  0.000000  0.000000      6.000000
  0.052632  0.052632  0.000000     12.000000
  0.105263  0.052632  0.000000     24.000000
  0.157895  0.052632  0.000000     24.000000
  0.210526  0.052632  0.000000     24.000000
  0.263158  0.052632  0.000000     24.000000
  0.315789  0.052632  0.000000     24.000000
  0.368421  0.052632  0.000000     24.000000
  0.421053  0.052632  0.000000     24.000000
  0.473684  0.052632  0.000000     24.000000
  0.105263  0.105263  0.000000     12.000000
  0.157895  0.105263  0.000000     24.000000
  0.210526  0.105263  0.000000     24.000000
  0.263158  0.105263  0.000000     24.000000
  0.315789  0.105263  0.000000     24.000000
  0.368421  0.105263  0.000000     24.000000
  0.421053  0.105263  0.000000     24.000000
  0.473684  0.105263  0.000000     24.000000
  0.157895  0.157895  0.000000     12.000000
  0.210526  0.157895  0.000000     24.000000
  0.263158  0.157895  0.000000     24.000000
  0.315789  0.157895  0.000000     24.000000
  0.368421  0.157895  0.000000     24.000000
  0.421053  0.157895  0.000000     24.000000
  0.473684  0.157895  0.000000     24.000000
  0.210526  0.210526  0.000000     12.000000
  0.263158  0.210526  0.000000     24.000000
  0.315789  0.210526  0.000000     24.000000
  0.368421  0.210526  0.000000     24.000000
  0.421053  0.210526  0.000000     24.000000
  0.473684  0.210526  0.000000     24.000000
  0.263158  0.263158  0.000000     12.000000
  0.315789  0.263158  0.000000     24.000000
  0.368421  0.263158  0.000000     24.000000
  0.421053  0.263158  0.000000     24.000000
  0.473684  0.263158  0.000000     24.000000
  0.315789  0.315789  0.000000     12.000000
  0.368421  0.315789  0.000000     24.000000
  0.421053  0.315789  0.000000     24.000000
  0.473684  0.315789  0.000000     24.000000
  0.368421  0.368421  0.000000     12.000000
  0.421053  0.368421  0.000000     24.000000
  0.473684  0.368421  0.000000     24.000000
  0.421053  0.421053  0.000000     12.000000
  0.473684  0.421053  0.000000     24.000000
  0.473684  0.473684  0.000000     12.000000
  0.052632  0.052632  0.052632      8.000000
  0.105263  0.052632  0.052632     24.000000
  0.157895  0.052632  0.052632     24.000000
  0.210526  0.052632  0.052632     24.000000
  0.263158  0.052632  0.052632     24.000000
  0.315789  0.052632  0.052632     24.000000
  0.368421  0.052632  0.052632     24.000000
  0.421053  0.052632  0.052632     24.000000
  0.473684  0.052632  0.052632     24.000000
  0.105263  0.105263  0.052632     24.000000
  0.157895  0.105263  0.052632     48.000000
  0.210526  0.105263  0.052632     48.000000
  0.263158  0.105263  0.052632     48.000000
  0.315789  0.105263  0.052632     48.000000
  0.368421  0.105263  0.052632     48.000000
  0.421053  0.105263  0.052632     48.000000
  0.473684  0.105263  0.052632     48.000000
  0.157895  0.157895  0.052632     24.000000
  0.210526  0.157895  0.052632     48.000000
  0.263158  0.157895  0.052632     48.000000
  0.315789  0.157895  0.052632     48.000000
  0.368421  0.157895  0.052632     48.000000
  0.421053  0.157895  0.052632     48.000000
  0.473684  0.157895  0.052632     48.000000
  0.210526  0.210526  0.052632     24.000000
  0.263158  0.210526  0.052632     48.000000
  0.315789  0.210526  0.052632     48.000000
  0.368421  0.210526  0.052632     48.000000
  0.421053  0.210526  0.052632     48.000000
  0.473684  0.210526  0.052632     48.000000
  0.263158  0.263158  0.052632     24.000000
  0.315789  0.263158  0.052632     48.000000
  0.368421  0.263158  0.052632     48.000000
  0.421053  0.263158  0.052632     48.000000
  0.473684  0.263158  0.052632     48.000000
  0.315789  0.315789  0.052632     24.000000
  0.368421  0.315789  0.052632     48.000000
  0.421053  0.315789  0.052632     48.000000
  0.473684  0.315789  0.052632     48.000000
  0.368421  0.368421  0.052632     24.000000
  0.421053  0.368421  0.052632     48.000000
  0.473684  0.368421  0.052632     48.000000
  0.421053  0.421053  0.052632     24.000000
  0.473684  0.421053  0.052632     48.000000
  0.473684  0.473684  0.052632     24.000000
  0.105263  0.105263  0.105263      8.000000
  0.157895  0.105263  0.105263     24.000000
  0.210526  0.105263  0.105263     24.000000
  0.263158  0.105263  0.105263     24.000000
  0.315789  0.105263  0.105263     24.000000
  0.368421  0.105263  0.105263     24.000000
  0.421053  0.105263  0.105263     24.000000
  0.473684  0.105263  0.105263     24.000000
  0.157895  0.157895  0.105263     24.000000
  0.210526  0.157895  0.105263     48.000000
  0.263158  0.157895  0.105263     48.000000
  0.315789  0.157895  0.105263     48.000000
  0.368421  0.157895  0.105263     48.000000
  0.421053  0.157895  0.105263     48.000000
  0.473684  0.157895  0.105263     48.000000
  0.210526  0.210526  0.105263     24.000000
  0.263158  0.210526  0.105263     48.000000
  0.315789  0.210526  0.105263     48.000000
  0.368421  0.210526  0.105263     48.000000
  0.421053  0.210526  0.105263     48.000000
  0.473684  0.210526  0.105263     48.000000
  0.263158  0.263158  0.105263     24.000000
  0.315789  0.263158  0.105263     48.000000
  0.368421  0.263158  0.105263     48.000000
  0.421053  0.263158  0.105263     48.000000
  0.473684  0.263158  0.105263     48.000000
  0.315789  0.315789  0.105263     24.000000
  0.368421  0.315789  0.105263     48.000000
  0.421053  0.315789  0.105263     48.000000
  0.473684  0.315789  0.105263     48.000000
  0.368421  0.368421  0.105263     24.000000
  0.421053  0.368421  0.105263     48.000000
  0.473684  0.368421  0.105263     48.000000
  0.421053  0.421053  0.105263     24.000000
  0.473684  0.421053  0.105263     48.000000
  0.473684  0.473684  0.105263     24.000000
  0.157895  0.157895  0.157895      8.000000
  0.210526  0.157895  0.157895     24.000000
  0.263158  0.157895  0.157895     24.000000
  0.315789  0.157895  0.157895     24.000000
  0.368421  0.157895  0.157895     24.000000
  0.421053  0.157895  0.157895     24.000000
  0.473684  0.157895  0.157895     24.000000
  0.210526  0.210526  0.157895     24.000000
  0.263158  0.210526  0.157895     48.000000
  0.315789  0.210526  0.157895     48.000000
  0.368421  0.210526  0.157895     48.000000
  0.421053  0.210526  0.157895     48.000000
  0.473684  0.210526  0.157895     48.000000
  0.263158  0.263158  0.157895     24.000000
  0.315789  0.263158  0.157895     48.000000
  0.368421  0.263158  0.157895     48.000000
  0.421053  0.263158  0.157895     48.000000
  0.473684  0.263158  0.157895     48.000000
  0.315789  0.315789  0.157895     24.000000
  0.368421  0.315789  0.157895     48.000000
  0.421053  0.315789  0.157895     48.000000
  0.473684  0.315789  0.157895     48.000000
  0.368421  0.368421  0.157895     24.000000
  0.421053  0.368421  0.157895     48.000000
  0.473684  0.368421  0.157895     48.000000
  0.421053  0.421053  0.157895     24.000000
  0.473684  0.421053  0.157895     48.000000
  0.473684  0.473684  0.157895     24.000000
  0.210526  0.210526  0.210526      8.000000
  0.263158  0.210526  0.210526     24.000000
  0.315789  0.210526  0.210526     24.000000
  0.368421  0.210526  0.210526     24.000000
  0.421053  0.210526  0.210526     24.000000
  0.473684  0.210526  0.210526     24.000000
  0.263158  0.263158  0.210526     24.000000
  0.315789  0.263158  0.210526     48.000000
  0.368421  0.263158  0.210526     48.000000
  0.421053  0.263158  0.210526     48.000000
  0.473684  0.263158  0.210526     48.000000
  0.315789  0.315789  0.210526     24.000000
  0.368421  0.315789  0.210526     48.000000
  0.421053  0.315789  0.210526     48.000000
  0.473684  0.315789  0.210526     48.000000
  0.368421  0.368421  0.210526     24.000000
  0.421053  0.368421  0.210526     48.000000
  0.473684  0.368421  0.210526     48.000000
  0.421053  0.421053  0.210526     24.000000
  0.473684  0.421053  0.210526     48.000000
  0.473684  0.473684  0.210526     24.000000
  0.263158  0.263158  0.263158      8.000000
  0.315789  0.263158  0.263158     24.000000
  0.368421  0.263158  0.263158     24.000000
  0.421053  0.263158  0.263158     24.000000
  0.473684  0.263158  0.263158     24.000000
  0.315789  0.315789  0.263158     24.000000
  0.368421  0.315789  0.263158     48.000000
  0.421053  0.315789  0.263158     48.000000
  0.473684  0.315789  0.263158     48.000000
  0.368421  0.368421  0.263158     24.000000
  0.421053  0.368421  0.263158     48.000000
  0.473684  0.368421  0.263158     48.000000
  0.421053  0.421053  0.263158     24.000000
  0.473684  0.421053  0.263158     48.000000
  0.473684  0.473684  0.263158     24.000000
  0.315789  0.315789  0.315789      8.000000
  0.368421  0.315789  0.315789     24.000000
  0.421053  0.315789  0.315789     24.000000
  0.473684  0.315789  0.315789     24.000000
  0.368421  0.368421  0.315789     24.000000
  0.421053  0.368421  0.315789     48.000000
  0.473684  0.368421  0.315789     48.000000
  0.421053  0.421053  0.315789     24.000000
  0.473684  0.421053  0.315789     48.000000
  0.473684  0.473684  0.315789     24.000000
  0.368421  0.368421  0.368421      8.000000
  0.421053  0.368421  0.368421     24.000000
  0.473684  0.368421  0.368421     24.000000
  0.421053  0.421053  0.368421     24.000000
  0.473684  0.421053  0.368421     48.000000
  0.473684  0.473684  0.368421     24.000000
  0.421053  0.421053  0.421053      8.000000
  0.473684  0.421053  0.421053     24.000000
  0.473684  0.473684  0.421053     24.000000
  0.473684  0.473684  0.473684      8.000000
 
 Following cartesian coordinates:
            Coordinates               Weight
  0.000000  0.000000  0.000000      1.000000
  0.013031  0.000000  0.000000      6.000000
  0.026062  0.000000  0.000000      6.000000
  0.039093  0.000000  0.000000      6.000000
  0.052124  0.000000  0.000000      6.000000
  0.065155  0.000000  0.000000      6.000000
  0.078186  0.000000  0.000000      6.000000
  0.091217  0.000000  0.000000      6.000000
  0.104249  0.000000  0.000000      6.000000
  0.117280  0.000000  0.000000      6.000000
  0.013031  0.013031  0.000000     12.000000
  0.026062  0.013031  0.000000     24.000000
  0.039093  0.013031  0.000000     24.000000
  0.052124  0.013031  0.000000     24.000000
  0.065155  0.013031  0.000000     24.000000
  0.078186  0.013031  0.000000     24.000000
  0.091217  0.013031  0.000000     24.000000
  0.104249  0.013031  0.000000     24.000000
  0.117280  0.013031  0.000000     24.000000
  0.026062  0.026062  0.000000     12.000000
  0.039093  0.026062  0.000000     24.000000
  0.052124  0.026062  0.000000     24.000000
  0.065155  0.026062  0.000000     24.000000
  0.078186  0.026062  0.000000     24.000000
  0.091217  0.026062  0.000000     24.000000
  0.104249  0.026062  0.000000     24.000000
  0.117280  0.026062  0.000000     24.000000
  0.039093  0.039093  0.000000     12.000000
  0.052124  0.039093  0.000000     24.000000
  0.065155  0.039093  0.000000     24.000000
  0.078186  0.039093  0.000000     24.000000
  0.091217  0.039093  0.000000     24.000000
  0.104249  0.039093  0.000000     24.000000
  0.117280  0.039093  0.000000     24.000000
  0.052124  0.052124  0.000000     12.000000
  0.065155  0.052124  0.000000     24.000000
  0.078186  0.052124  0.000000     24.000000
  0.091217  0.052124  0.000000     24.000000
  0.104249  0.052124  0.000000     24.000000
  0.117280  0.052124  0.000000     24.000000
  0.065155  0.065155  0.000000     12.000000
  0.078186  0.065155  0.000000     24.000000
  0.091217  0.065155  0.000000     24.000000
  0.104249  0.065155  0.000000     24.000000
  0.117280  0.065155  0.000000     24.000000
  0.078186  0.078186  0.000000     12.000000
  0.091217  0.078186  0.000000     24.000000
  0.104249  0.078186  0.000000     24.000000
  0.117280  0.078186  0.000000     24.000000
  0.091217  0.091217  0.000000     12.000000
  0.104249  0.091217  0.000000     24.000000
  0.117280  0.091217  0.000000     24.000000
  0.104249  0.104249  0.000000     12.000000
  0.117280  0.104249  0.000000     24.000000
  0.117280  0.117280  0.000000     12.000000
  0.013031  0.013031  0.013031      8.000000
  0.026062  0.013031  0.013031     24.000000
  0.039093  0.013031  0.013031     24.000000
  0.052124  0.013031  0.013031     24.000000
  0.065155  0.013031  0.013031     24.000000
  0.078186  0.013031  0.013031     24.000000
  0.091217  0.013031  0.013031     24.000000
  0.104249  0.013031  0.013031     24.000000
  0.117280  0.013031  0.013031     24.000000
  0.026062  0.026062  0.013031     24.000000
  0.039093  0.026062  0.013031     48.000000
  0.052124  0.026062  0.013031     48.000000
  0.065155  0.026062  0.013031     48.000000
  0.078186  0.026062  0.013031     48.000000
  0.091217  0.026062  0.013031     48.000000
  0.104249  0.026062  0.013031     48.000000
  0.117280  0.026062  0.013031     48.000000
  0.039093  0.039093  0.013031     24.000000
  0.052124  0.039093  0.013031     48.000000
  0.065155  0.039093  0.013031     48.000000
  0.078186  0.039093  0.013031     48.000000
  0.091217  0.039093  0.013031     48.000000
  0.104249  0.039093  0.013031     48.000000
  0.117280  0.039093  0.013031     48.000000
  0.052124  0.052124  0.013031     24.000000
  0.065155  0.052124  0.013031     48.000000
  0.078186  0.052124  0.013031     48.000000
  0.091217  0.052124  0.013031     48.000000
  0.104249  0.052124  0.013031     48.000000
  0.117280  0.052124  0.013031     48.000000
  0.065155  0.065155  0.013031     24.000000
  0.078186  0.065155  0.013031     48.000000
  0.091217  0.065155  0.013031     48.000000
  0.104249  0.065155  0.013031     48.000000
  0.117280  0.065155  0.013031     48.000000
  0.078186  0.078186  0.013031     24.000000
  0.091217  0.078186  0.013031     48.000000
  0.104249  0.078186  0.013031     48.000000
  0.117280  0.078186  0.013031     48.000000
  0.091217  0.091217  0.013031     24.000000
  0.104249  0.091217  0.013031     48.000000
  0.117280  0.091217  0.013031     48.000000
  0.104249  0.104249  0.013031     24.000000
  0.117280  0.104249  0.013031     48.000000
  0.117280  0.117280  0.013031     24.000000
  0.026062  0.026062  0.026062      8.000000
  0.039093  0.026062  0.026062     24.000000
  0.052124  0.026062  0.026062     24.000000
  0.065155  0.026062  0.026062     24.000000
  0.078186  0.026062  0.026062     24.000000
  0.091217  0.026062  0.026062     24.000000
  0.104249  0.026062  0.026062     24.000000
  0.117280  0.026062  0.026062     24.000000
  0.039093  0.039093  0.026062     24.000000
  0.052124  0.039093  0.026062     48.000000
  0.065155  0.039093  0.026062     48.000000
  0.078186  0.039093  0.026062     48.000000
  0.091217  0.039093  0.026062     48.000000
  0.104249  0.039093  0.026062     48.000000
  0.117280  0.039093  0.026062     48.000000
  0.052124  0.052124  0.026062     24.000000
  0.065155  0.052124  0.026062     48.000000
  0.078186  0.052124  0.026062     48.000000
  0.091217  0.052124  0.026062     48.000000
  0.104249  0.052124  0.026062     48.000000
  0.117280  0.052124  0.026062     48.000000
  0.065155  0.065155  0.026062     24.000000
  0.078186  0.065155  0.026062     48.000000
  0.091217  0.065155  0.026062     48.000000
  0.104249  0.065155  0.026062     48.000000
  0.117280  0.065155  0.026062     48.000000
  0.078186  0.078186  0.026062     24.000000
  0.091217  0.078186  0.026062     48.000000
  0.104249  0.078186  0.026062     48.000000
  0.117280  0.078186  0.026062     48.000000
  0.091217  0.091217  0.026062     24.000000
  0.104249  0.091217  0.026062     48.000000
  0.117280  0.091217  0.026062     48.000000
  0.104249  0.104249  0.026062     24.000000
  0.117280  0.104249  0.026062     48.000000
  0.117280  0.117280  0.026062     24.000000
  0.039093  0.039093  0.039093      8.000000
  0.052124  0.039093  0.039093     24.000000
  0.065155  0.039093  0.039093     24.000000
  0.078186  0.039093  0.039093     24.000000
  0.091217  0.039093  0.039093     24.000000
  0.104249  0.039093  0.039093     24.000000
  0.117280  0.039093  0.039093     24.000000
  0.052124  0.052124  0.039093     24.000000
  0.065155  0.052124  0.039093     48.000000
  0.078186  0.052124  0.039093     48.000000
  0.091217  0.052124  0.039093     48.000000
  0.104249  0.052124  0.039093     48.000000
  0.117280  0.052124  0.039093     48.000000
  0.065155  0.065155  0.039093     24.000000
  0.078186  0.065155  0.039093     48.000000
  0.091217  0.065155  0.039093     48.000000
  0.104249  0.065155  0.039093     48.000000
  0.117280  0.065155  0.039093     48.000000
  0.078186  0.078186  0.039093     24.000000
  0.091217  0.078186  0.039093     48.000000
  0.104249  0.078186  0.039093     48.000000
  0.117280  0.078186  0.039093     48.000000
  0.091217  0.091217  0.039093     24.000000
  0.104249  0.091217  0.039093     48.000000
  0.117280  0.091217  0.039093     48.000000
  0.104249  0.104249  0.039093     24.000000
  0.117280  0.104249  0.039093     48.000000
  0.117280  0.117280  0.039093     24.000000
  0.052124  0.052124  0.052124      8.000000
  0.065155  0.052124  0.052124     24.000000
  0.078186  0.052124  0.052124     24.000000
  0.091217  0.052124  0.052124     24.000000
  0.104249  0.052124  0.052124     24.000000
  0.117280  0.052124  0.052124     24.000000
  0.065155  0.065155  0.052124     24.000000
  0.078186  0.065155  0.052124     48.000000
  0.091217  0.065155  0.052124     48.000000
  0.104249  0.065155  0.052124     48.000000
  0.117280  0.065155  0.052124     48.000000
  0.078186  0.078186  0.052124     24.000000
  0.091217  0.078186  0.052124     48.000000
  0.104249  0.078186  0.052124     48.000000
  0.117280  0.078186  0.052124     48.000000
  0.091217  0.091217  0.052124     24.000000
  0.104249  0.091217  0.052124     48.000000
  0.117280  0.091217  0.052124     48.000000
  0.104249  0.104249  0.052124     24.000000
  0.117280  0.104249  0.052124     48.000000
  0.117280  0.117280  0.052124     24.000000
  0.065155  0.065155  0.065155      8.000000
  0.078186  0.065155  0.065155     24.000000
  0.091217  0.065155  0.065155     24.000000
  0.104249  0.065155  0.065155     24.000000
  0.117280  0.065155  0.065155     24.000000
  0.078186  0.078186  0.065155     24.000000
  0.091217  0.078186  0.065155     48.000000
  0.104249  0.078186  0.065155     48.000000
  0.117280  0.078186  0.065155     48.000000
  0.091217  0.091217  0.065155     24.000000
  0.104249  0.091217  0.065155     48.000000
  0.117280  0.091217  0.065155     48.000000
  0.104249  0.104249  0.065155     24.000000
  0.117280  0.104249  0.065155     48.000000
  0.117280  0.117280  0.065155     24.000000
  0.078186  0.078186  0.078186      8.000000
  0.091217  0.078186  0.078186     24.000000
  0.104249  0.078186  0.078186     24.000000
  0.117280  0.078186  0.078186     24.000000
  0.091217  0.091217  0.078186     24.000000
  0.104249  0.091217  0.078186     48.000000
  0.117280  0.091217  0.078186     48.000000
  0.104249  0.104249  0.078186     24.000000
  0.117280  0.104249  0.078186     48.000000
  0.117280  0.117280  0.078186     24.000000
  0.091217  0.091217  0.091217      8.000000
  0.104249  0.091217  0.091217     24.000000
  0.117280  0.091217  0.091217     24.000000
  0.104249  0.104249  0.091217     24.000000
  0.117280  0.104249  0.091217     48.000000
  0.117280  0.117280  0.091217     24.000000
  0.104249  0.104249  0.104249      8.000000
  0.117280  0.104249  0.104249     24.000000
  0.117280  0.117280  0.104249     24.000000
  0.117280  0.117280  0.117280      8.000000
 


--------------------------------------------------------------------------------------------------------




 Dimension of arrays:
   k-points           NKPTS =    220   k-points in BZ     NKDIM =    220   number of bands    NBANDS=     14
   number of dos      NEDOS =    301   number of ions     NIONS =      4
   non local maximal  LDIM  =      4   non local SUM 2l+1 LMDIM =      8
   total plane-waves  NPLWV =  21952
   max r-space proj   IRMAX =   2987   max aug-charges    IRDMAX=  10572
   dimension x,y,z NGX =    28 NGY =   28 NGZ =   28
   dimension x,y,z NGXF=    56 NGYF=   56 NGZF=   56
   support grid    NGXF=    56 NGYF=   56 NGZF=   56
   ions per type =               4
   NGX,Y,Z   is equivalent  to a cutoff of  10.70, 10.70, 10.70 a.u.
   NGXF,Y,Z  is equivalent  to a cutoff of  21.40, 21.40, 21.40 a.u.

 SYSTEM =  Al fcc relaxation                       
 POSCAR =  Al4                                     

 Startparameter for this run:
   NWRITE =      2    write-flag & timer
   PREC   = accura    normal or accurate (medium, high low for compatibility)
   ISTART =      0    job   : 0-new  1-cont  2-samecut
   ICHARG =      2    charge: 1-file 2-atom 10-const
   ISPIN  =      1    spin polarized calculation?
   LNONCOLLINEAR =      F non collinear calculations
   LSORBIT =      F    spin-orbit coupling
   INIWAV =      1    electr: 0-lowe 1-rand  2-diag
   LASPH  =      F    aspherical Exc in radial PAW
 Electronic Relaxation 1
   ENCUT  =  400.0 eV  29.40 Ry    5.42 a.u.   7.10  7.10  7.10*2*pi/ulx,y,z
   ENINI  =  400.0     initial cutoff
   ENAUG  =  291.1 eV  augmentation charge cutoff
   NELM   =     60;   NELMIN=  4; NELMDL= -5     # of ELM steps 
   EDIFF  = 0.1E-05   stopping-criterion for ELM
   LREAL  =      T    real-space projection
   NLSPLINE    = F    spline interpolate recip. space projectors
   LCOMPAT=      F    compatible to vasp.4.4
   GGA_COMPAT  = T    GGA compatible to vasp.4.4-vasp.4.6
   LMAXPAW     = -100 max onsite density
   LMAXMIX     =    2 max onsite mixed and CHGCAR
   VOSKOWN=      0    Vosko Wilk Nusair interpolation
   ROPT   =   -0.00025
 Ionic relaxation
   EDIFFG = 0.1E-04   stopping-criterion for IOM
   NSW    =    100    number of steps for IOM
   NBLOCK =      1;   KBLOCK =    100    inner block; outer block 
   IBRION =      2    ionic relax: 0-MD 1-quasi-New 2-CG
   NFREE  =      1    steps in history (QN), initial steepest desc. (CG)
   ISIF   =      4    stress and relaxation
   IWAVPR =     11    prediction:  0-non 1-charg 2-wave 3-comb
   ISYM   =      2    0-nonsym 1-usesym 2-fastsym
   LCORR  =      T    Harris-Foulkes like correction to forces

   POTIM  = 0.5000    time-step for ionic-motion
   TEIN   =    0.0    initial temperature
   TEBEG  =    0.0;   TEEND  =   0.0 temperature during run
   SMASS  =  -3.00    Nose mass-parameter (am)
   estimated Nose-frequenzy (Omega)   =  0.10E-29 period in steps = 0.13E+47 mass=  -0.433E-27a.u.
   SCALEE = 1.0000    scale energy and forces
   NPACO  =    256;   APACO  = 10.0  distance and # of slots for P.C.
   PSTRESS=    0.0 pullay stress

  Mass of Ions in am
   POMASS =  26.98
  Ionic Valenz
   ZVAL   =   3.00
  Atomic Wigner-Seitz radii
   RWIGS  =  -1.00
  virtual crystal weights 
   VCA    =   1.00
   NELECT =      12.0000    total number of electrons
   NUPDOWN=      -1.0000    fix difference up-down

 DOS related values:
   EMIN   =  10.00;   EMAX   =-10.00  energy-range for DOS
   EFERMI =   0.00;   METHOD = LEGACY      
   ISMEAR =     1;   SIGMA  =   0.20  broadening in eV -4-tet -1-fermi 0-gaus

 Electronic relaxation 2 (details)
   IALGO  =     68    algorithm
   LDIAG  =      T    sub-space diagonalisation (order eigenvalues)
   LSUBROT=      F    optimize rotation matrix (better conditioning)
   TURBO    =      0    0=normal 1=particle mesh
   IRESTART =      0    0=no restart 2=restart with 2 vectors
   NREBOOT  =      0    no. of reboots
   NMIN     =      0    reboot dimension
   EREF     =   0.00    reference energy to select bands
   IMIX   =      4    mixing-type and parameters
     AMIX     =   0.40;   BMIX     =  1.00
     AMIX_MAG =   1.60;   BMIX_MAG =  1.00
     AMIN     =   0.10
     WC   =   100.;   INIMIX=   1;  MIXPRE=   1;  MAXMIX= -45

 Intra band minimization:
   WEIMIN = 0.0010     energy-eigenvalue tresh-hold
   EBREAK =  0.18E-07  absolut break condition
   DEPER  =   0.30     relativ break condition  

   TIME   =   0.40     timestep for ELM

  volume/ion in A,a.u.               =      20.59       138.95
  Fermi-wavevector in a.u.,A,eV,Ry     =   0.861454  1.627913 10.096933  0.742104
  Thomas-Fermi vector in A             =   1.979110

 Write flags
   LWAVE        =      F    write WAVECAR
   LDOWNSAMPLE  =      F    k-point downsampling of WAVECAR
   LCHARG       =      F    write CHGCAR
   LVTOT        =      F    write LOCPOT, total local potential
   LVHAR        =      F    write LOCPOT, Hartree potential only
   LELF         =      F    write electronic localiz. function (ELF)
   LORBIT       =      0    0 simple, 1 ext, 2 COOP (PROOUT), +10 PAW based schemes


 Dipole corrections
   LMONO  =      F    monopole corrections only (constant potential shift)
   LDIPOL =      F    correct potential (dipole corrections)
   IDIPOL =      0    1-x, 2-y, 3-z, 4-all directions 
   EPSILON=  1.0000000 bulk dielectric constant

 Exchange correlation treatment:
   GGA     =    --    GGA type
   LEXCH   =     8    internal setting for exchange type
   LIBXC   =     F    Libxc                    
   VOSKOWN =     0    Vosko Wilk Nusair interpolation
   LHFCALC =     F    Hartree Fock is set to
   LHFONE  =     F    Hartree Fock one center treatment
   AEXX    =    0.0000 exact exchange contribution

 Linear response parameters
   LEPSILON=     F    determine dielectric tensor
   LRPA    =     F    only Hartree local field effects (RPA)
   LNABLA  =     F    use nabla operator in PAW spheres
   LVEL    =     F    velocity operator in full k-point grid
   CSHIFT  =0.1000    complex shift for real part using Kramers Kronig
   OMEGAMAX=  -1.0    maximum frequency
   DEG_THRESHOLD= 0.2000000E-02 threshold for treating states as degnerate
   RTIME   =   -0.100 relaxation time in fs
  (WPLASMAI=    0.000 imaginary part of plasma frequency in eV, 0.658/RTIME)
   DFIELD  = 0.0000000 0.0000000 0.0000000 field for delta impulse in time

  Optional k-point grid parameters
   LKPOINTS_OPT  =     F    use optional k-point grid
   KPOINTS_OPT_MODE=     1    mode for optional k-point grid

 Orbital magnetization related:
   ORBITALMAG=     F  switch on orbital magnetization
   LCHIMAG   =     F  perturbation theory with respect to B field
   DQ        =  0.001000  dq finite difference perturbation B field
   LLRAUG    =     F  two centre corrections for induced B field
   LBONE     =     F  B-component reconstruction in AE one-centre
   LVGVCALC  =     T  calculate vGv susceptibility
   LVGVAPPL  =     F  apply vGv susceptibility instead of pGv for G=0

 Random number generation:
   RANDOM_GENERATOR = DEFAULT
   PCG_SEED         = not used


--------------------------------------------------------------------------------------------------------


 conjugate gradient relaxation of ions
 charge density and potential will be updated during run
 non-spin polarized calculation
 RMM-DIIS sequential band-by-band and
  variant of blocked Davidson during initial phase
 perform sub-space diagonalisation
    before iterative eigenvector-optimisation
 modified Broyden-mixing scheme, WC =      100.0
 initial mixing is a Kerker type mixing with AMIX =  0.4000 and BMIX =      1.0000
 Hartree-type preconditioning will be used
 using additional bands            8
 real space projection scheme for non local part
 use partial core corrections
 calculate Harris-corrections to forces   (improved forces if not selfconsistent)
 use gradient corrections 
 use of overlap-Matrix (Vanderbilt PP)
 Methfessel and Paxton  Order N= 1 SIGMA  =   0.20


--------------------------------------------------------------------------------------------------------


  energy-cutoff  :      400.00
  volume of cell :       82.36
      direct lattice vectors                 reciprocal lattice vectors
     4.350805121  0.000000000  0.000000000     0.229842517  0.000000000 -0.000000000
    -0.000000000  4.350805121  0.000000000     0.000000000  0.229842517  0.000000000
     0.000000000  0.000000000  4.350805121    -0.000000000 -0.000000000  0.229842517

  length of vectors
     4.350805121  4.350805121  4.350805121     0.229842517  0.229842517  0.229842517



 k-points in units of 2pi/SCALE and weight: Automatic kpoint scheme                 
   0.00000000  0.00000000  0.00000000       0.000
   0.01303107  0.00000000  0.00000000       0.001
   0.02606214  0.00000000  0.00000000       0.001
   0.03909321  0.00000000  0.00000000       0.001
   0.05212428  0.00000000  0.00000000       0.001
   0.06515535  0.00000000  0.00000000       0.001
   0.07818643  0.00000000  0.00000000       0.001
   0.09121750  0.00000000  0.00000000       0.001
   0.10424857  0.00000000  0.00000000       0.001
   0.11727964  0.00000000  0.00000000       0.001
   0.01303107  0.01303107  0.00000000       0.002
   0.02606214  0.01303107  0.00000000       0.003
   0.03909321  0.01303107  0.00000000       0.003
   0.05212428  0.01303107  0.00000000       0.003
   0.06515535  0.01303107  0.00000000       0.003
   0.07818643  0.01303107  0.00000000       0.003
   0.09121750  0.01303107  0.00000000       0.003
   0.10424857  0.01303107  0.00000000       0.003
   0.11727964  0.01303107  0.00000000       0.003
   0.02606214  0.02606214  0.00000000       0.002
   0.03909321  0.02606214  0.00000000       0.003
   0.05212428  0.02606214  0.00000000       0.003
   0.06515535  0.02606214  0.00000000       0.003
   0.07818643  0.02606214  0.00000000       0.003
   0.09121750  0.02606214  0.00000000       0.003
   0.10424857  0.02606214  0.00000000       0.003
   0.11727964  0.02606214  0.00000000       0.003
   0.03909321  0.03909321  0.00000000       0.002
   0.05212428  0.03909321  0.00000000       0.003
   0.06515535  0.03909321  0.00000000       0.003
   0.07818643  0.03909321  0.00000000       0.003
   0.09121750  0.03909321  0.00000000       0.003
   0.10424857  0.03909321  0.00000000       0.003
   0.11727964  0.03909321  0.00000000       0.003
   0.05212428  0.05212428  0.00000000       0.002
   0.06515535  0.05212428  0.00000000       0.003
   0.07818643  0.05212428  0.00000000       0.003
   0.09121750  0.05212428  0.00000000       0.003
   0.10424857  0.05212428  0.00000000       0.003
   0.11727964  0.05212428  0.00000000       0.003
   0.06515535  0.06515535  0.00000000       0.002
   0.07818643  0.06515535  0.00000000       0.003
   0.09121750  0.06515535  0.00000000       0.003
   0.10424857  0.06515535  0.00000000       0.003
   0.11727964  0.06515535  0.00000000       0.003
   0.07818643  0.07818643  0.00000000       0.002
   0.09121750  0.07818643  0.00000000       0.003
   0.10424857  0.07818643  0.00000000       0.003
   0.11727964  0.07818643  0.00000000       0.003
   0.09121750  0.09121750  0.00000000       0.002
   0.10424857  0.09121750  0.00000000       0.003
   0.11727964  0.09121750  0.00000000       0.003
   0.10424857  0.10424857  0.00000000       0.002
   0.11727964  0.10424857  0.00000000       0.003
   0.11727964  0.11727964  0.00000000       0.002
   0.01303107  0.01303107  0.01303107       0.001
   0.02606214  0.01303107  0.01303107       0.003
   0.03909321  0.01303107  0.01303107       0.003
   0.05212428  0.01303107  0.01303107       0.003
   0.06515535  0.01303107  0.01303107       0.003
   0.07818643  0.01303107  0.01303107       0.003
   0.09121750  0.01303107  0.01303107       0.003
   0.10424857  0.01303107  0.01303107       0.003
   0.11727964  0.01303107  0.01303107       0.003
   0.02606214  0.02606214  0.01303107       0.003
   0.03909321  0.02606214  0.01303107       0.007
   0.05212428  0.02606214  0.01303107       0.007
   0.06515535  0.02606214  0.01303107       0.007
   0.07818643  0.02606214  0.01303107       0.007
   0.09121750  0.02606214  0.01303107       0.007
   0.10424857  0.02606214  0.01303107       0.007
   0.11727964  0.02606214  0.01303107       0.007
   0.03909321  0.03909321  0.01303107       0.003
   0.05212428  0.03909321  0.01303107       0.007
   0.06515535  0.03909321  0.01303107       0.007
   0.07818643  0.03909321  0.01303107       0.007
   0.09121750  0.03909321  0.01303107       0.007
   0.10424857  0.03909321  0.01303107       0.007
   0.11727964  0.03909321  0.01303107       0.007
   0.05212428  0.05212428  0.01303107       0.003
   0.06515535  0.05212428  0.01303107       0.007
   0.07818643  0.05212428  0.01303107       0.007
   0.09121750  0.05212428  0.01303107       0.007
   0.10424857  0.05212428  0.01303107       0.007
   0.11727964  0.05212428  0.01303107       0.007
   0.06515535  0.06515535  0.01303107       0.003
   0.07818643  0.06515535  0.01303107       0.007
   0.09121750  0.06515535  0.01303107       0.007
   0.10424857  0.06515535  0.01303107       0.007
   0.11727964  0.06515535  0.01303107       0.007
   0.07818643  0.07818643  0.01303107       0.003
   0.09121750  0.07818643  0.01303107       0.007
   0.10424857  0.07818643  0.01303107       0.007
   0.11727964  0.07818643  0.01303107       0.007
   0.09121750  0.09121750  0.01303107       0.003
   0.10424857  0.09121750  0.01303107       0.007
   0.11727964  0.09121750  0.01303107       0.007
   0.10424857  0.10424857  0.01303107       0.003
   0.11727964  0.10424857  0.01303107       0.007
   0.11727964  0.11727964  0.01303107       0.003
   0.02606214  0.02606214  0.02606214       0.001
   0.03909321  0.02606214  0.02606214       0.003
   0.05212428  0.02606214  0.02606214       0.003
   0.06515535  0.02606214  0.02606214       0.003
   0.07818643  0.02606214  0.02606214       0.003
   0.09121750  0.02606214  0.02606214       0.003
   0.10424857  0.02606214  0.02606214       0.003
   0.11727964  0.02606214  0.02606214       0.003
   0.03909321  0.03909321  0.02606214       0.003
   0.05212428  0.03909321  0.02606214       0.007
   0.06515535  0.03909321  0.02606214       0.007
   0.07818643  0.03909321  0.02606214       0.007
   0.09121750  0.03909321  0.02606214       0.007
   0.10424857  0.03909321  0.02606214       0.007
   0.11727964  0.03909321  0.02606214       0.007
   0.05212428  0.05212428  0.02606214       0.003
   0.06515535  0.05212428  0.02606214       0.007
   0.07818643  0.05212428  0.02606214       0.007
   0.09121750  0.05212428  0.02606214       0.007
   0.10424857  0.05212428  0.02606214       0.007
   0.11727964  0.05212428  0.02606214       0.007
   0.06515535  0.06515535  0.02606214       0.003
   0.07818643  0.06515535  0.02606214       0.007
   0.09121750  0.06515535  0.02606214       0.007
   0.10424857  0.06515535  0.02606214       0.007
   0.11727964  0.06515535  0.02606214       0.007
   0.07818643  0.07818643  0.02606214       0.003
   0.09121750  0.07818643  0.02606214       0.007
   0.10424857  0.07818643  0.02606214       0.007
   0.11727964  0.07818643  0.02606214       0.007
   0.09121750  0.09121750  0.02606214       0.003
   0.10424857  0.09121750  0.02606214       0.007
   0.11727964  0.09121750  0.02606214       0.007
   0.10424857  0.10424857  0.02606214       0.003
   0.11727964  0.10424857  0.02606214       0.007
   0.11727964  0.11727964  0.02606214       0.003
   0.03909321  0.03909321  0.03909321       0.001
   0.05212428  0.03909321  0.03909321       0.003
   0.06515535  0.03909321  0.03909321       0.003
   0.07818643  0.03909321  0.03909321       0.003
   0.09121750  0.03909321  0.03909321       0.003
   0.10424857  0.03909321  0.03909321       0.003
   0.11727964  0.03909321  0.03909321       0.003
   0.05212428  0.05212428  0.03909321       0.003
   0.06515535  0.05212428  0.03909321       0.007
   0.07818643  0.05212428  0.03909321       0.007
   0.09121750  0.05212428  0.03909321       0.007
   0.10424857  0.05212428  0.03909321       0.007
   0.11727964  0.05212428  0.03909321       0.007
   0.06515535  0.06515535  0.03909321       0.003
   0.07818643  0.06515535  0.03909321       0.007
   0.09121750  0.06515535  0.03909321       0.007
   0.10424857  0.06515535  0.03909321       0.007
   0.11727964  0.06515535  0.03909321       0.007
   0.07818643  0.07818643  0.03909321       0.003
   0.09121750  0.07818643  0.03909321       0.007
   0.10424857  0.07818643  0.03909321       0.007
   0.11727964  0.07818643  0.03909321       0.007
   0.09121750  0.09121750  0.03909321       0.003
   0.10424857  0.09121750  0.03909321       0.007
   0.11727964  0.09121750  0.03909321       0.007
   0.10424857  0.10424857  0.03909321       0.003
   0.11727964  0.10424857  0.03909321       0.007
   0.11727964  0.11727964  0.03909321       0.003
   0.05212428  0.05212428  0.05212428       0.001
   0.06515535  0.05212428  0.05212428       0.003
   0.07818643  0.05212428  0.05212428       0.003
   0.09121750  0.05212428  0.05212428       0.003
   0.10424857  0.05212428  0.05212428       0.003
   0.11727964  0.05212428  0.05212428       0.003
   0.06515535  0.06515535  0.05212428       0.003
   0.07818643  0.06515535  0.05212428       0.007
   0.09121750  0.06515535  0.05212428       0.007
   0.10424857  0.06515535  0.05212428       0.007
   0.11727964  0.06515535  0.05212428       0.007
   0.07818643  0.07818643  0.05212428       0.003
   0.09121750  0.07818643  0.05212428       0.007
   0.10424857  0.07818643  0.05212428       0.007
   0.11727964  0.07818643  0.05212428       0.007
   0.09121750  0.09121750  0.05212428       0.003
   0.10424857  0.09121750  0.05212428       0.007
   0.11727964  0.09121750  0.05212428       0.007
   0.10424857  0.10424857  0.05212428       0.003
   0.11727964  0.10424857  0.05212428       0.007
   0.11727964  0.11727964  0.05212428       0.003
   0.06515535  0.06515535  0.06515535       0.001
   0.07818643  0.06515535  0.06515535       0.003
   0.09121750  0.06515535  0.06515535       0.003
   0.10424857  0.06515535  0.06515535       0.003
   0.11727964  0.06515535  0.06515535       0.003
   0.07818643  0.07818643  0.06515535       0.003
   0.09121750  0.07818643  0.06515535       0.007
   0.10424857  0.07818643  0.06515535       0.007
   0.11727964  0.07818643  0.06515535       0.007
   0.09121750  0.09121750  0.06515535       0.003
   0.10424857  0.09121750  0.06515535       0.007
   0.11727964  0.09121750  0.06515535       0.007
   0.10424857  0.10424857  0.06515535       0.003
   0.11727964  0.10424857  0.06515535       0.007
   0.11727964  0.11727964  0.06515535       0.003
   0.07818643  0.07818643  0.07818643       0.001
   0.09121750  0.07818643  0.07818643       0.003
   0.10424857  0.07818643  0.07818643       0.003
   0.11727964  0.07818643  0.07818643       0.003
   0.09121750  0.09121750  0.07818643       0.003
   0.10424857  0.09121750  0.07818643       0.007
   0.11727964  0.09121750  0.07818643       0.007
   0.10424857  0.10424857  0.07818643       0.003
   0.11727964  0.10424857  0.07818643       0.007
   0.11727964  0.11727964  0.07818643       0.003
   0.09121750  0.09121750  0.09121750       0.001
   0.10424857  0.09121750  0.09121750       0.003
   0.11727964  0.09121750  0.09121750       0.003
   0.10424857  0.10424857  0.09121750       0.003
   0.11727964  0.10424857  0.09121750       0.007
   0.11727964  0.11727964  0.09121750       0.003
   0.10424857  0.10424857  0.10424857       0.001
   0.11727964  0.10424857  0.10424857       0.003
   0.11727964  0.11727964  0.10424857       0.003
   0.11727964  0.11727964  0.11727964       0.001

 k-points in reciprocal lattice and weights: Automatic kpoint scheme                 
   0.00000000  0.00000000  0.00000000       0.000
   0.05263158  0.00000000  0.00000000       0.001
   0.10526316  0.00000000  0.00000000       0.001
   0.15789474  0.00000000  0.00000000       0.001
   0.21052632  0.00000000  0.00000000       0.001
   0.26315789  0.00000000  0.00000000       0.001
   0.31578947  0.00000000  0.00000000       0.001
   0.36842105  0.00000000  0.00000000       0.001
   0.42105263  0.00000000  0.00000000       0.001
   0.47368421  0.00000000  0.00000000       0.001
   0.05263158  0.05263158  0.00000000       0.002
   0.10526316  0.05263158  0.00000000       0.003
   0.15789474  0.05263158  0.00000000       0.003
   0.21052632  0.05263158  0.00000000       0.003
   0.26315789  0.05263158  0.00000000       0.003
   0.31578947  0.05263158  0.00000000       0.003
   0.36842105  0.05263158  0.00000000       0.003
   0.42105263  0.05263158  0.00000000       0.003
   0.47368421  0.05263158  0.00000000       0.003
   0.10526316  0.10526316  0.00000000       0.002
   0.15789474  0.10526316  0.00000000       0.003
   0.21052632  0.10526316  0.00000000       0.003
   0.26315789  0.10526316  0.00000000       0.003
   0.31578947  0.10526316  0.00000000       0.003
   0.36842105  0.10526316  0.00000000       0.003
   0.42105263  0.10526316  0.00000000       0.003
   0.47368421  0.10526316  0.00000000       0.003
   0.15789474  0.15789474  0.00000000       0.002
   0.21052632  0.15789474  0.00000000       0.003
   0.26315789  0.15789474  0.00000000       0.003
   0.31578947  0.15789474  0.00000000       0.003
   0.36842105  0.15789474  0.00000000       0.003
   0.42105263  0.15789474  0.00000000       0.003
   0.47368421  0.15789474  0.00000000       0.003
   0.21052632  0.21052632  0.00000000       0.002
   0.26315789  0.21052632  0.00000000       0.003
   0.31578947  0.21052632  0.00000000       0.003
   0.36842105  0.21052632  0.00000000       0.003
   0.42105263  0.21052632  0.00000000       0.003
   0.47368421  0.21052632  0.00000000       0.003
   0.26315789  0.26315789  0.00000000       0.002
   0.31578947  0.26315789  0.00000000       0.003
   0.36842105  0.26315789  0.00000000       0.003
   0.42105263  0.26315789  0.00000000       0.003
   0.47368421  0.26315789  0.00000000       0.003
   0.31578947  0.31578947  0.00000000       0.002
   0.36842105  0.31578947  0.00000000       0.003
   0.42105263  0.31578947  0.00000000       0.003
   0.47368421  0.31578947  0.00000000       0.003
   0.36842105  0.36842105  0.00000000       0.002
   0.42105263  0.36842105  0.00000000       0.003
   0.47368421  0.36842105  0.00000000       0.003
   0.42105263  0.42105263  0.00000000       0.002
   0.47368421  0.42105263  0.00000000       0.003
   0.47368421  0.47368421  0.00000000       0.002
   0.05263158  0.05263158  0.05263158       0.001
   0.10526316  0.05263158  0.05263158       0.003
   0.15789474  0.05263158  0.05263158       0.003
   0.21052632  0.05263158  0.05263158       0.003
   0.26315789  0.05263158  0.05263158       0.003
   0.31578947  0.05263158  0.05263158       0.003
   0.36842105  0.05263158  0.05263158       0.003
   0.42105263  0.05263158  0.05263158       0.003
   0.47368421  0.05263158  0.05263158       0.003
   0.10526316  0.10526316  0.05263158       0.003
   0.15789474  0.10526316  0.05263158       0.007
   0.21052632  0.10526316  0.05263158       0.007
   0.26315789  0.10526316  0.05263158       0.007
   0.31578947  0.10526316  0.05263158       0.007
   0.36842105  0.10526316  0.05263158       0.007
   0.42105263  0.10526316  0.05263158       0.007
   0.47368421  0.10526316  0.05263158       0.007
   0.15789474  0.15789474  0.05263158       0.003
   0.21052632  0.15789474  0.05263158       0.007
   0.26315789  0.15789474  0.05263158       0.007
   0.31578947  0.15789474  0.05263158       0.007
   0.36842105  0.15789474  0.05263158       0.007
   0.42105263  0.15789474  0.05263158       0.007
   0.47368421  0.15789474  0.05263158       0.007
   0.21052632  0.21052632  0.05263158       0.003
   0.26315789  0.21052632  0.05263158       0.007
   0.31578947  0.21052632  0.05263158       0.007
   0.36842105  0.21052632  0.05263158       0.007
   0.42105263  0.21052632  0.05263158       0.007
   0.47368421  0.21052632  0.05263158       0.007
   0.26315789  0.26315789  0.05263158       0.003
   0.31578947  0.26315789  0.05263158       0.007
   0.36842105  0.26315789  0.05263158       0.007
   0.42105263  0.26315789  0.05263158       0.007
   0.47368421  0.26315789  0.05263158       0.007
   0.31578947  0.31578947  0.05263158       0.003
   0.36842105  0.31578947  0.05263158       0.007
   0.42105263  0.31578947  0.05263158       0.007
   0.47368421  0.31578947  0.05263158       0.007
   0.36842105  0.36842105  0.05263158       0.003
   0.42105263  0.36842105  0.05263158       0.007
   0.47368421  0.36842105  0.05263158       0.007
   0.42105263  0.42105263  0.05263158       0.003
   0.47368421  0.42105263  0.05263158       0.007
   0.47368421  0.47368421  0.05263158       0.003
   0.10526316  0.10526316  0.10526316       0.001
   0.15789474  0.10526316  0.10526316       0.003
   0.21052632  0.10526316  0.10526316       0.003
   0.26315789  0.10526316  0.10526316       0.003
   0.31578947  0.10526316  0.10526316       0.003
   0.36842105  0.10526316  0.10526316       0.003
   0.42105263  0.10526316  0.10526316       0.003
   0.47368421  0.10526316  0.10526316       0.003
   0.15789474  0.15789474  0.10526316       0.003
   0.21052632  0.15789474  0.10526316       0.007
   0.26315789  0.15789474  0.10526316       0.007
   0.31578947  0.15789474  0.10526316       0.007
   0.36842105  0.15789474  0.10526316       0.007
   0.42105263  0.15789474  0.10526316       0.007
   0.47368421  0.15789474  0.10526316       0.007
   0.21052632  0.21052632  0.10526316       0.003
   0.26315789  0.21052632  0.10526316       0.007
   0.31578947  0.21052632  0.10526316       0.007
   0.36842105  0.21052632  0.10526316       0.007
   0.42105263  0.21052632  0.10526316       0.007
   0.47368421  0.21052632  0.10526316       0.007
   0.26315789  0.26315789  0.10526316       0.003
   0.31578947  0.26315789  0.10526316       0.007
   0.36842105  0.26315789  0.10526316       0.007
   0.42105263  0.26315789  0.10526316       0.007
   0.47368421  0.26315789  0.10526316       0.007
   0.31578947  0.31578947  0.10526316       0.003
   0.36842105  0.31578947  0.10526316       0.007
   0.42105263  0.31578947  0.10526316       0.007
   0.47368421  0.31578947  0.10526316       0.007
   0.36842105  0.36842105  0.10526316       0.003
   0.42105263  0.36842105  0.10526316       0.007
   0.47368421  0.36842105  0.10526316       0.007
   0.42105263  0.42105263  0.10526316       0.003
   0.47368421  0.42105263  0.10526316       0.007
   0.47368421  0.47368421  0.10526316       0.003
   0.15789474  0.15789474  0.15789474       0.001
   0.21052632  0.15789474  0.15789474       0.003
   0.26315789  0.15789474  0.15789474       0.003
   0.31578947  0.15789474  0.15789474       0.003
   0.36842105  0.15789474  0.15789474       0.003
   0.42105263  0.15789474  0.15789474       0.003
   0.47368421  0.15789474  0.15789474       0.003
   0.21052632  0.21052632  0.15789474       0.003
   0.26315789  0.21052632  0.15789474       0.007
   0.31578947  0.21052632  0.15789474       0.007
   0.36842105  0.21052632  0.15789474       0.007
   0.42105263  0.21052632  0.15789474       0.007
   0.47368421  0.21052632  0.15789474       0.007
   0.26315789  0.26315789  0.15789474       0.003
   0.31578947  0.26315789  0.15789474       0.007
   0.36842105  0.26315789  0.15789474       0.007
   0.42105263  0.26315789  0.15789474       0.007
   0.47368421  0.26315789  0.15789474       0.007
   0.31578947  0.31578947  0.15789474       0.003
   0.36842105  0.31578947  0.15789474       0.007
   0.42105263  0.31578947  0.15789474       0.007
   0.47368421  0.31578947  0.15789474       0.007
   0.36842105  0.36842105  0.15789474       0.003
   0.42105263  0.36842105  0.15789474       0.007
   0.47368421  0.36842105  0.15789474       0.007
   0.42105263  0.42105263  0.15789474       0.003
   0.47368421  0.42105263  0.15789474       0.007
   0.47368421  0.47368421  0.15789474       0.003
   0.21052632  0.21052632  0.21052632       0.001
   0.26315789  0.21052632  0.21052632       0.003
   0.31578947  0.21052632  0.21052632       0.003
   0.36842105  0.21052632  0.21052632       0.003
   0.42105263  0.21052632  0.21052632       0.003
   0.47368421  0.21052632  0.21052632       0.003
   0.26315789  0.26315789  0.21052632       0.003
   0.31578947  0.26315789  0.21052632       0.007
   0.36842105  0.26315789  0.21052632       0.007
   0.42105263  0.26315789  0.21052632       0.007
   0.47368421  0.26315789  0.21052632       0.007
   0.31578947  0.31578947  0.21052632       0.003
   0.36842105  0.31578947  0.21052632       0.007
   0.42105263  0.31578947  0.21052632       0.007
   0.47368421  0.31578947  0.21052632       0.007
   0.36842105  0.36842105  0.21052632       0.003
   0.42105263  0.36842105  0.21052632       0.007
   0.47368421  0.36842105  0.21052632       0.007
   0.42105263  0.42105263  0.21052632       0.003
   0.47368421  0.42105263  0.21052632       0.007
   0.47368421  0.47368421  0.21052632       0.003
   0.26315789  0.26315789  0.26315789       0.001
   0.31578947  0.26315789  0.26315789       0.003
   0.36842105  0.26315789  0.26315789       0.003
   0.42105263  0.26315789  0.26315789       0.003
   0.47368421  0.26315789  0.26315789       0.003
   0.31578947  0.31578947  0.26315789       0.003
   0.36842105  0.31578947  0.26315789       0.007
   0.42105263  0.31578947  0.26315789       0.007
   0.47368421  0.31578947  0.26315789       0.007
   0.36842105  0.36842105  0.26315789       0.003
   0.42105263  0.36842105  0.26315789       0.007
   0.47368421  0.36842105  0.26315789       0.007
   0.42105263  0.42105263  0.26315789       0.003
   0.47368421  0.42105263  0.26315789       0.007
   0.47368421  0.47368421  0.26315789       0.003
   0.31578947  0.31578947  0.31578947       0.001
   0.36842105  0.31578947  0.31578947       0.003
   0.42105263  0.31578947  0.31578947       0.003
   0.47368421  0.31578947  0.31578947       0.003
   0.36842105  0.36842105  0.31578947       0.003
   0.42105263  0.36842105  0.31578947       0.007
   0.47368421  0.36842105  0.31578947       0.007
   0.42105263  0.42105263  0.31578947       0.003
   0.47368421  0.42105263  0.31578947       0.007
   0.47368421  0.47368421  0.31578947       0.003
   0.36842105  0.36842105  0.36842105       0.001
   0.42105263  0.36842105  0.36842105       0.003
   0.47368421  0.36842105  0.36842105       0.003
   0.42105263  0.42105263  0.36842105       0.003
   0.47368421  0.42105263  0.36842105       0.007
   0.47368421  0.47368421  0.36842105       0.003
   0.42105263  0.42105263  0.42105263       0.001
   0.47368421  0.42105263  0.42105263       0.003
   0.47368421  0.47368421  0.42105263       0.003
   0.47368421  0.47368421  0.47368421       0.001

 position of ions in fractional coordinates (direct lattice) 
   0.00000000  0.00000000  0.00000000
   0.00000000  0.50000000  0.50000000
   0.50000000  0.00000000  0.50000000
   0.50000000  0.50000000  0.00000000

 position of ions in cartesian coordinates  (Angst):
   0.00000000  0.00000000  0.00000000
  -0.00000000  2.17540256  2.17540256
   2.17540256  0.00000000  2.17540256
   2.17540256  2.17540256  0.00000000



--------------------------------------------------------------------------------------------------------


 k-point   1 :   0.0000 0.0000 0.0000  plane waves:    1503
 k-point   2 :   0.0526 0.0000 0.0000  plane waves:    1483
 k-point   3 :   0.1053 0.0000 0.0000  plane waves:    1482
 k-point   4 :   0.1579 0.0000 0.0000  plane waves:    1474
 k-point   5 :   0.2105 0.0000 0.0000  plane waves:    1478
 k-point   6 :   0.2632 0.0000 0.0000  plane waves:    1482
 k-point   7 :   0.3158 0.0000 0.0000  plane waves:    1482
 k-point   8 :   0.3684 0.0000 0.0000  plane waves:    1482
 k-point   9 :   0.4211 0.0000 0.0000  plane waves:    1502
 k-point  10 :   0.4737 0.0000 0.0000  plane waves:    1498
 k-point  11 :   0.0526 0.0526 0.0000  plane waves:    1484
 k-point  12 :   0.1053 0.0526 0.0000  plane waves:    1481
 k-point  13 :   0.1579 0.0526 0.0000  plane waves:    1472
 k-point  14 :   0.2105 0.0526 0.0000  plane waves:    1475
 k-point  15 :   0.2632 0.0526 0.0000  plane waves:    1484
 k-point  16 :   0.3158 0.0526 0.0000  plane waves:    1489
 k-point  17 :   0.3684 0.0526 0.0000  plane waves:    1493
 k-point  18 :   0.4211 0.0526 0.0000  plane waves:    1490
 k-point  19 :   0.4737 0.0526 0.0000  plane waves:    1490
 k-point  20 :   0.1053 0.1053 0.0000  plane waves:    1484
 k-point  21 :   0.1579 0.1053 0.0000  plane waves:    1479
 k-point  22 :   0.2105 0.1053 0.0000  plane waves:    1476
 k-point  23 :   0.2632 0.1053 0.0000  plane waves:    1486
 k-point  24 :   0.3158 0.1053 0.0000  plane waves:    1492
 k-point  25 :   0.3684 0.1053 0.0000  plane waves:    1489
 k-point  26 :   0.4211 0.1053 0.0000  plane waves:    1489
 k-point  27 :   0.4737 0.1053 0.0000  plane waves:    1485
 k-point  28 :   0.1579 0.1579 0.0000  plane waves:    1476
 k-point  29 :   0.2105 0.1579 0.0000  plane waves:    1481
 k-point  30 :   0.2632 0.1579 0.0000  plane waves:    1495
 k-point  31 :   0.3158 0.1579 0.0000  plane waves:    1499
 k-point  32 :   0.3684 0.1579 0.0000  plane waves:    1498
 k-point  33 :   0.4211 0.1579 0.0000  plane waves:    1498
 k-point  34 :   0.4737 0.1579 0.0000  plane waves:    1490
 k-point  35 :   0.2105 0.2105 0.0000  plane waves:    1488
 k-point  36 :   0.2632 0.2105 0.0000  plane waves:    1496
 k-point  37 :   0.3158 0.2105 0.0000  plane waves:    1499
 k-point  38 :   0.3684 0.2105 0.0000  plane waves:    1502
 k-point  39 :   0.4211 0.2105 0.0000  plane waves:    1504
 k-point  40 :   0.4737 0.2105 0.0000  plane waves:    1501
 k-point  41 :   0.2632 0.2632 0.0000  plane waves:    1492
 k-point  42 :   0.3158 0.2632 0.0000  plane waves:    1501
 k-point  43 :   0.3684 0.2632 0.0000  plane waves:    1505
 k-point  44 :   0.4211 0.2632 0.0000  plane waves:    1507
 k-point  45 :   0.4737 0.2632 0.0000  plane waves:    1506
 k-point  46 :   0.3158 0.3158 0.0000  plane waves:    1500
 k-point  47 :   0.3684 0.3158 0.0000  plane waves:    1503
 k-point  48 :   0.4211 0.3158 0.0000  plane waves:    1505
 k-point  49 :   0.4737 0.3158 0.0000  plane waves:    1504
 k-point  50 :   0.3684 0.3684 0.0000  plane waves:    1502
 k-point  51 :   0.4211 0.3684 0.0000  plane waves:    1505
 k-point  52 :   0.4737 0.3684 0.0000  plane waves:    1509
 k-point  53 :   0.4211 0.4211 0.0000  plane waves:    1502
 k-point  54 :   0.4737 0.4211 0.0000  plane waves:    1496
 k-point  55 :   0.4737 0.4737 0.0000  plane waves:    1498
 k-point  56 :   0.0526 0.0526 0.0526  plane waves:    1485
 k-point  57 :   0.1053 0.0526 0.0526  plane waves:    1475
 k-point  58 :   0.1579 0.0526 0.0526  plane waves:    1471
 k-point  59 :   0.2105 0.0526 0.0526  plane waves:    1477
 k-point  60 :   0.2632 0.0526 0.0526  plane waves:    1486
 k-point  61 :   0.3158 0.0526 0.0526  plane waves:    1496
 k-point  62 :   0.3684 0.0526 0.0526  plane waves:    1490
 k-point  63 :   0.4211 0.0526 0.0526  plane waves:    1486
 k-point  64 :   0.4737 0.0526 0.0526  plane waves:    1493
 k-point  65 :   0.1053 0.1053 0.0526  plane waves:    1475
 k-point  66 :   0.1579 0.1053 0.0526  plane waves:    1472
 k-point  67 :   0.2105 0.1053 0.0526  plane waves:    1480
 k-point  68 :   0.2632 0.1053 0.0526  plane waves:    1488
 k-point  69 :   0.3158 0.1053 0.0526  plane waves:    1493
 k-point  70 :   0.3684 0.1053 0.0526  plane waves:    1492
 k-point  71 :   0.4211 0.1053 0.0526  plane waves:    1490
 k-point  72 :   0.4737 0.1053 0.0526  plane waves:    1486
 k-point  73 :   0.1579 0.1579 0.0526  plane waves:    1486
 k-point  74 :   0.2105 0.1579 0.0526  plane waves:    1483
 k-point  75 :   0.2632 0.1579 0.0526  plane waves:    1496
 k-point  76 :   0.3158 0.1579 0.0526  plane waves:    1499
 k-point  77 :   0.3684 0.1579 0.0526  plane waves:    1497
 k-point  78 :   0.4211 0.1579 0.0526  plane waves:    1495
 k-point  79 :   0.4737 0.1579 0.0526  plane waves:    1491
 k-point  80 :   0.2105 0.2105 0.0526  plane waves:    1487
 k-point  81 :   0.2632 0.2105 0.0526  plane waves:    1496
 k-point  82 :   0.3158 0.2105 0.0526  plane waves:    1500
 k-point  83 :   0.3684 0.2105 0.0526  plane waves:    1502
 k-point  84 :   0.4211 0.2105 0.0526  plane waves:    1507
 k-point  85 :   0.4737 0.2105 0.0526  plane waves:    1499
 k-point  86 :   0.2632 0.2632 0.0526  plane waves:    1497
 k-point  87 :   0.3158 0.2632 0.0526  plane waves:    1499
 k-point  88 :   0.3684 0.2632 0.0526  plane waves:    1504
 k-point  89 :   0.4211 0.2632 0.0526  plane waves:    1502
 k-point  90 :   0.4737 0.2632 0.0526  plane waves:    1504
 k-point  91 :   0.3158 0.3158 0.0526  plane waves:    1502
 k-point  92 :   0.3684 0.3158 0.0526  plane waves:    1499
 k-point  93 :   0.4211 0.3158 0.0526  plane waves:    1501
 k-point  94 :   0.4737 0.3158 0.0526  plane waves:    1506
 k-point  95 :   0.3684 0.3684 0.0526  plane waves:    1504
 k-point  96 :   0.4211 0.3684 0.0526  plane waves:    1507
 k-point  97 :   0.4737 0.3684 0.0526  plane waves:    1502
 k-point  98 :   0.4211 0.4211 0.0526  plane waves:    1504
 k-point  99 :   0.4737 0.4211 0.0526  plane waves:    1499
 k-point 100 :   0.4737 0.4737 0.0526  plane waves:    1501
 k-point 101 :   0.1053 0.1053 0.1053  plane waves:    1472
 k-point 102 :   0.1579 0.1053 0.1053  plane waves:    1478
 k-point 103 :   0.2105 0.1053 0.1053  plane waves:    1483
 k-point 104 :   0.2632 0.1053 0.1053  plane waves:    1489
 k-point 105 :   0.3158 0.1053 0.1053  plane waves:    1499
 k-point 106 :   0.3684 0.1053 0.1053  plane waves:    1499
 k-point 107 :   0.4211 0.1053 0.1053  plane waves:    1493
 k-point 108 :   0.4737 0.1053 0.1053  plane waves:    1490
 k-point 109 :   0.1579 0.1579 0.1053  plane waves:    1480
 k-point 110 :   0.2105 0.1579 0.1053  plane waves:    1484
 k-point 111 :   0.2632 0.1579 0.1053  plane waves:    1495
 k-point 112 :   0.3158 0.1579 0.1053  plane waves:    1495
 k-point 113 :   0.3684 0.1579 0.1053  plane waves:    1503
 k-point 114 :   0.4211 0.1579 0.1053  plane waves:    1499
 k-point 115 :   0.4737 0.1579 0.1053  plane waves:    1494
 k-point 116 :   0.2105 0.2105 0.1053  plane waves:    1495
 k-point 117 :   0.2632 0.2105 0.1053  plane waves:    1495
 k-point 118 :   0.3158 0.2105 0.1053  plane waves:    1494
 k-point 119 :   0.3684 0.2105 0.1053  plane waves:    1500
 k-point 120 :   0.4211 0.2105 0.1053  plane waves:    1500
 k-point 121 :   0.4737 0.2105 0.1053  plane waves:    1496
 k-point 122 :   0.2632 0.2632 0.1053  plane waves:    1497
 k-point 123 :   0.3158 0.2632 0.1053  plane waves:    1497
 k-point 124 :   0.3684 0.2632 0.1053  plane waves:    1497
 k-point 125 :   0.4211 0.2632 0.1053  plane waves:    1501
 k-point 126 :   0.4737 0.2632 0.1053  plane waves:    1503
 k-point 127 :   0.3158 0.3158 0.1053  plane waves:    1499
 k-point 128 :   0.3684 0.3158 0.1053  plane waves:    1498
 k-point 129 :   0.4211 0.3158 0.1053  plane waves:    1500
 k-point 130 :   0.4737 0.3158 0.1053  plane waves:    1502
 k-point 131 :   0.3684 0.3684 0.1053  plane waves:    1498
 k-point 132 :   0.4211 0.3684 0.1053  plane waves:    1498
 k-point 133 :   0.4737 0.3684 0.1053  plane waves:    1503
 k-point 134 :   0.4211 0.4211 0.1053  plane waves:    1501
 k-point 135 :   0.4737 0.4211 0.1053  plane waves:    1510
 k-point 136 :   0.4737 0.4737 0.1053  plane waves:    1504
 k-point 137 :   0.1579 0.1579 0.1579  plane waves:    1490
 k-point 138 :   0.2105 0.1579 0.1579  plane waves:    1492
 k-point 139 :   0.2632 0.1579 0.1579  plane waves:    1494
 k-point 140 :   0.3158 0.1579 0.1579  plane waves:    1500
 k-point 141 :   0.3684 0.1579 0.1579  plane waves:    1496
 k-point 142 :   0.4211 0.1579 0.1579  plane waves:    1496
 k-point 143 :   0.4737 0.1579 0.1579  plane waves:    1499
 k-point 144 :   0.2105 0.2105 0.1579  plane waves:    1494
 k-point 145 :   0.2632 0.2105 0.1579  plane waves:    1497
 k-point 146 :   0.3158 0.2105 0.1579  plane waves:    1500
 k-point 147 :   0.3684 0.2105 0.1579  plane waves:    1501
 k-point 148 :   0.4211 0.2105 0.1579  plane waves:    1502
 k-point 149 :   0.4737 0.2105 0.1579  plane waves:    1495
 k-point 150 :   0.2632 0.2632 0.1579  plane waves:    1494
 k-point 151 :   0.3158 0.2632 0.1579  plane waves:    1497
 k-point 152 :   0.3684 0.2632 0.1579  plane waves:    1498
 k-point 153 :   0.4211 0.2632 0.1579  plane waves:    1500
 k-point 154 :   0.4737 0.2632 0.1579  plane waves:    1502
 k-point 155 :   0.3158 0.3158 0.1579  plane waves:    1500
 k-point 156 :   0.3684 0.3158 0.1579  plane waves:    1498
 k-point 157 :   0.4211 0.3158 0.1579  plane waves:    1501
 k-point 158 :   0.4737 0.3158 0.1579  plane waves:    1503
 k-point 159 :   0.3684 0.3684 0.1579  plane waves:    1496
 k-point 160 :   0.4211 0.3684 0.1579  plane waves:    1500
 k-point 161 :   0.4737 0.3684 0.1579  plane waves:    1501
 k-point 162 :   0.4211 0.4211 0.1579  plane waves:    1499
 k-point 163 :   0.4737 0.4211 0.1579  plane waves:    1504
 k-point 164 :   0.4737 0.4737 0.1579  plane waves:    1506
 k-point 165 :   0.2105 0.2105 0.2105  plane waves:    1490
 k-point 166 :   0.2632 0.2105 0.2105  plane waves:    1496
 k-point 167 :   0.3158 0.2105 0.2105  plane waves:    1494
 k-point 168 :   0.3684 0.2105 0.2105  plane waves:    1499
 k-point 169 :   0.4211 0.2105 0.2105  plane waves:    1505
 k-point 170 :   0.4737 0.2105 0.2105  plane waves:    1500
 k-point 171 :   0.2632 0.2632 0.2105  plane waves:    1490
 k-point 172 :   0.3158 0.2632 0.2105  plane waves:    1496
 k-point 173 :   0.3684 0.2632 0.2105  plane waves:    1498
 k-point 174 :   0.4211 0.2632 0.2105  plane waves:    1498
 k-point 175 :   0.4737 0.2632 0.2105  plane waves:    1502
 k-point 176 :   0.3158 0.3158 0.2105  plane waves:    1501
 k-point 177 :   0.3684 0.3158 0.2105  plane waves:    1498
 k-point 178 :   0.4211 0.3158 0.2105  plane waves:    1497
 k-point 179 :   0.4737 0.3158 0.2105  plane waves:    1503
 k-point 180 :   0.3684 0.3684 0.2105  plane waves:    1497
 k-point 181 :   0.4211 0.3684 0.2105  plane waves:    1495
 k-point 182 :   0.4737 0.3684 0.2105  plane waves:    1500
 k-point 183 :   0.4211 0.4211 0.2105  plane waves:    1491
 k-point 184 :   0.4737 0.4211 0.2105  plane waves:    1498
 k-point 185 :   0.4737 0.4737 0.2105  plane waves:    1495
 k-point 186 :   0.2632 0.2632 0.2632  plane waves:    1493
 k-point 187 :   0.3158 0.2632 0.2632  plane waves:    1492
 k-point 188 :   0.3684 0.2632 0.2632  plane waves:    1499
 k-point 189 :   0.4211 0.2632 0.2632  plane waves:    1502
 k-point 190 :   0.4737 0.2632 0.2632  plane waves:    1496
 k-point 191 :   0.3158 0.3158 0.2632  plane waves:    1495
 k-point 192 :   0.3684 0.3158 0.2632  plane waves:    1492
 k-point 193 :   0.4211 0.3158 0.2632  plane waves:    1495
 k-point 194 :   0.4737 0.3158 0.2632  plane waves:    1497
 k-point 195 :   0.3684 0.3684 0.2632  plane waves:    1491
 k-point 196 :   0.4211 0.3684 0.2632  plane waves:    1499
 k-point 197 :   0.4737 0.3684 0.2632  plane waves:    1498
 k-point 198 :   0.4211 0.4211 0.2632  plane waves:    1492
 k-point 199 :   0.4737 0.4211 0.2632  plane waves:    1498
 k-point 200 :   0.4737 0.4737 0.2632  plane waves:    1496
 k-point 201 :   0.3158 0.3158 0.3158  plane waves:    1490
 k-point 202 :   0.3684 0.3158 0.3158  plane waves:    1492
 k-point 203 :   0.4211 0.3158 0.3158  plane waves:    1495
 k-point 204 :   0.4737 0.3158 0.3158  plane waves:    1504
 k-point 205 :   0.3684 0.3684 0.3158  plane waves:    1495
 k-point 206 :   0.4211 0.3684 0.3158  plane waves:    1500
 k-point 207 :   0.4737 0.3684 0.3158  plane waves:    1498
 k-point 208 :   0.4211 0.4211 0.3158  plane waves:    1493
 k-point 209 :   0.4737 0.4211 0.3158  plane waves:    1496
 k-point 210 :   0.4737 0.4737 0.3158  plane waves:    1492
 k-point 211 :   0.3684 0.3684 0.3684  plane waves:    1493
 k-point 212 :   0.4211 0.3684 0.3684  plane waves:    1495
 k-point 213 :   0.4737 0.3684 0.3684  plane waves:    1499
 k-point 214 :   0.4211 0.4211 0.3684  plane waves:    1494
 k-point 215 :   0.4737 0.4211 0.3684  plane waves:    1498
 k-point 216 :   0.4737 0.4737 0.3684  plane waves:    1498
 k-point 217 :   0.4211 0.4211 0.4211  plane waves:    1496
 k-point 218 :   0.4737 0.4211 0.4211  plane waves:    1510
 k-point 219 :   0.4737 0.4737 0.4211  plane waves:    1506
 k-point 220 :   0.4737 0.4737 0.4737  plane waves:    1490

 maximum and minimum number of plane-waves per node :      1510     1471

 maximum number of plane-waves:      1510
 maximum index in each direction: 
   IXMAX=    7   IYMAX=    7   IZMAX=    7
   IXMIN=   -7   IYMIN=   -7   IZMIN=   -7


 serial   3D FFT for wavefunctions
 parallel 3D FFT for charge:
    minimum data exchange during FFTs selected (reduces bandwidth)


 total amount of memory used by VASP MPI-rank0    38545. kBytes
=======================================================================

   base      :      30000. kBytes
   nonlr-proj:       1025. kBytes
   fftplans  :        531. kBytes
   grid      :       1507. kBytes
   one-center:         12. kBytes
   wavefun   :       5470. kBytes

     INWAV:  cpu time      0.0001: real time      0.0001
 Broyden mixing: mesh for mixing (old mesh)
   NGX = 15   NGY = 15   NGZ = 15
  (NGX  = 56   NGY  = 56   NGZ  = 56)
  gives a total of   3375 points

 initial charge density was supplied:
 charge density of overlapping atoms calculated
 number of electron      12.0000000 magnetization 
 keeping initial charge density in first step


--------------------------------------------------------------------------------------------------------


 Maximum index for non-local projection operator         1457
 Maximum index for augmentation-charges          561 (set IRDMAX)


--------------------------------------------------------------------------------------------------------


 First call to EWALD:  gamma=   0.407
 Maximum number of real-space cells 3x 3x 3
 Maximum number of reciprocal cells 3x 3x 3

    FEWALD:  cpu time      0.0076: real time      0.0036


--------------------------------------- Ionic step        1  -------------------------------------------




--------------------------------------- Iteration      1(   1)  ---------------------------------------


    POTLOK:  cpu time      0.0583: real time      0.0343
    SETDIJ:  cpu time      0.0028: real time      0.0028
     EDDAV:  cpu time     10.1028: real time      5.0722
       DOS:  cpu time      0.0031: real time      0.0026
    --------------------------------------------
      LOOP:  cpu time     10.1670: real time      5.1119

 eigenvalue-minimisations  :  6160
 total energy-change (2. order) :-0.2477615E+01  (-0.3611353E+03)
 number of electron      12.0000000 magnetization 
 augmentation part       12.0000000 magnetization 

 Free energy of the ion-electron system (eV)
  ---------------------------------------------------
  alpha Z        PSCENC =        -0.65252404
  Ewald energy   TEWEN  =      -273.13995103
  -Hartree energ DENC   =        -0.96938949
  -exchange      EXHF   =         0.00000000
  -V(xc)+E(xc)   XCENC  =      -106.47815735
  PAW double counting   =       264.80062850     -136.98248303
  entropy T*S    EENTRO =        -0.00273428
  eigenvalues    EBANDS =        36.79437860
  atomic energy  EATOM  =       214.15261729
  Solvation  Ediel_sol  =         0.00000000
  ---------------------------------------------------
  free energy    TOTEN  =        -2.47761482 eV

  energy without entropy =       -2.47488054  energy(sigma->0) =       -2.47670339


--------------------------------------------------------------------------------------------------------




--------------------------------------- Iteration      1(   2)  ---------------------------------------


[...]

 k-point   199 :       0.4737    0.4211    0.2632
  band No.  band energies     occupation 
      1      -0.1815      2.00000
      2       0.2197      2.00000
      3       1.0174      2.00000
      4       1.4127      2.00000
      5       3.4225      2.00000
      6       3.8123      2.00000
      7       4.5935      2.00000
      8       4.9837      2.00000
      9      11.1436     -0.00000
     10      11.4980      0.00000
     11      12.2022      0.00000
     12      12.5587      0.00000
     13      13.2739      0.00000
     14      13.4773      0.00000

 k-point   200 :       0.4737    0.4737    0.2632
  band No.  band energies     occupation 
      1       0.1774      2.00000
      2       0.5772      2.00000
      3       0.5772      2.00000
      4       0.9753      2.00000
      5       3.7711      2.00000
      6       4.1618      2.00000
      7       4.1618      2.00000
      8       4.5526      2.00000
      9      11.4688      0.00000
     10      11.8241      0.00000
     11      11.8241      0.00000
     12      12.1796      0.00000
     13      14.0516      0.00000
     14      14.1372      0.00000

 k-point   201 :       0.3158    0.3158    0.3158
  band No.  band energies     occupation 
      1      -1.4983      2.00000
      2       1.3118      2.00000
      3       1.3118      2.00000
      4       1.3118      2.00000
      5       4.1004      2.00000
      6       4.1004      2.00000
      7       4.1004      2.00000
      8       6.8209     -0.00000
      9      10.6882     -0.00000
     10      10.6882     -0.00000
     11      10.6882     -0.00000
     12      12.5855      0.00000
     13      12.5855      0.00000
     14      12.5855      0.00000

 k-point   202 :       0.3684    0.3158    0.3158
  band No.  band energies     occupation 
      1      -1.2212      2.00000
      2       0.7882      2.00000
      3       1.5805      2.00000
      4       1.5805      2.00000
      5       3.5881      2.00000
      6       3.5881      2.00000
      7       4.3675      2.00000
      8       6.3132     -0.00525
      9      10.9373     -0.00000
     10      10.9373     -0.00000
     11      11.6730      0.00000
     12      12.5579      0.00000
     13      12.5579      0.00000
     14      12.8307      0.00000

 k-point   203 :       0.4211    0.3158    0.3158
  band No.  band energies     occupation 
      1      -0.9022      2.00000
      2       0.3043      2.00000
      3       1.8855      2.00000
      4       1.8855      2.00000
      5       3.1204      2.00000
      6       3.1204      2.00000
      7       4.6759      2.00000
      8       5.8442      1.06431
      9      11.2154     -0.00000
     10      11.2154     -0.00000
     11      12.2731      0.00000
     12      12.2731      0.00000
     13      12.6682      0.00000
     14      13.1130      0.00000

 k-point   204 :       0.4737    0.3158    0.3158
  band No.  band energies     occupation 
      1      -0.5413      2.00000
      2      -0.1390      2.00000
      3       2.2024      2.00000
      4       2.2024      2.00000
      5       2.7221      2.00000
      6       2.7221      2.00000
      7       5.0251      2.00000
      8       5.4146      2.00839
      9      11.4957      0.00000
     10      11.4957      0.00000
     11      11.9633      0.00000
     12      11.9633      0.00000
     13      13.4320      0.00000
     14      13.6458      0.00000

 k-point   205 :       0.3684    0.3684    0.3158
  band No.  band energies     occupation 
      1      -0.9448      2.00000
      2       1.0594      2.00000
      3       1.0594      2.00000
      4       1.8434      2.00000
      5       3.0796      2.00000
      6       3.8543      2.00000
      7       3.8543      2.00000
      8       5.8038      1.39316
      9      11.1890     -0.00000
     10      11.9111      0.00000
     11      11.9111      0.00000
     12      12.8102      0.00000
     13      12.8102      0.00000
     14      13.0721      0.00000

 k-point   206 :       0.4211    0.3684    0.3158
  band No.  band energies     occupation 
      1      -0.6264      2.00000
      2       0.5772      2.00000
      3       1.3704      2.00000
      4       2.1175      2.00000
      5       2.6408      2.00000
      6       3.3824      2.00000
      7       4.1628      2.00000
      8       5.3335      2.00153
      9      11.4722      0.00000
     10      12.1444      0.00000
     11      12.5635      0.00000
     12      12.8545      0.00000
     13      13.0864      0.00000
     14      13.1379      0.00000

 k-point   207 :       0.4737    0.3684    0.3158
  band No.  band energies     occupation 
      1      -0.2663      2.00000
      2       0.1350      2.00000
      3       1.7174      2.00000
      4       2.0753      2.00000
      5       2.5996      2.00000
      6       2.9557      2.00000
      7       4.5125      2.00000
      8       4.9029      2.00000
      9      11.7809      0.00000
     10      12.0874      0.00000
     11      12.5752      0.00000
     12      12.8457      0.00000
     13      13.3650      0.00000
     14      13.7353      0.00000

 k-point   208 :       0.4211    0.4211    0.3158
  band No.  band energies     occupation 
      1      -0.3088      2.00000
      2       0.8908      2.00000
      3       0.8908      2.00000
      4       2.0329      2.00000
      5       2.5588      2.00000
      6       3.6898      2.00000
      7       3.6898      2.00000
      8       4.8622      2.00000
      9      11.7579      0.00000
     10      12.7261      0.00000
     11      12.7261      0.00000
     12      13.2401      0.00000
     13      13.2402      0.00000
     14      13.6428      0.00000

 k-point   209 :       0.4737    0.4211    0.3158
  band No.  band energies     occupation 
      1       0.0503      2.00000
      2       0.4504      2.00000
      3       1.2441      2.00000
      4       1.6332      2.00000
      5       2.8733      2.00000
      6       3.2587      2.00000
      7       4.0397      2.00000
      8       4.4307      2.00000
      9      12.0716      0.00000
     10      12.4044      0.00000
     11      13.0686      0.00000
     12      13.4161      0.00000
     13      13.4819      0.00000
     14      13.6813      0.00000

 k-point   210 :       0.4737    0.4737    0.3158
  band No.  band energies     occupation 
      1       0.4081      2.00000
      2       0.8064      2.00000
      3       0.8064      2.00000
      4       1.2020      2.00000
      5       3.2175      2.00000
      6       3.6075      2.00000
      7       3.6075      2.00000
      8       3.9986      2.00000
      9      12.3880      0.00000
     10      12.7259      0.00000
     11      12.7259      0.00000
     12      13.0672      0.00000
     13      14.2809      0.00000
     14      14.3271      0.00000

 k-point   211 :       0.3684    0.3684    0.3684
  band No.  band energies     occupation 
      1      -0.6689      2.00000
      2       1.3283      2.00000
      3       1.3283      2.00000
      4       1.3283      2.00000
      5       3.3414      2.00000
      6       3.3414      2.00000
      7       3.3414      2.00000
      8       5.2931      2.00057
      9      12.1599      0.00000
     10      12.1599      0.00000
     11      12.1599      0.00000
     12      13.3152      0.00000
     13      13.3152      0.00000
     14      13.3152      0.00000

 k-point   212 :       0.4211    0.3684    0.3684
  band No.  band energies     occupation 
      1      -0.3513      2.00000
      2       0.8486      2.00000
      3       1.6330      2.00000
      4       1.6330      2.00000
      5       2.8737      2.00000
      6       2.8737      2.00000
      7       3.6490      2.00000
      8       4.8216      2.00000
      9      12.4285      0.00000
     10      12.4285      0.00000
     11      13.1326      0.00000
     12      13.3351      0.00000
     13      13.3351      0.00000
     14      13.5941      0.00000

 k-point   213 :       0.4737    0.3684    0.3684
  band No.  band energies     occupation 
      1       0.0079      2.00000
      2       0.4081      2.00000
      3       1.9478      2.00000
      4       1.9478      2.00000
      5       2.4774      2.00000
      6       2.4774      2.00000
      7       3.9989      2.00000
      8       4.3900      2.00000
      9      12.6881      0.00000
     10      12.6881      0.00000
     11      13.1276      0.00000
     12      13.1276      0.00000
     13      13.9079      0.00000
     14      14.0764      0.00000

 k-point   214 :       0.4211    0.4211    0.3684
  band No.  band energies     occupation 
      1      -0.0345      2.00000
      2       1.1597      2.00000
      3       1.1597      2.00000
      4       1.9052      2.00000
      5       2.4366      2.00000
      6       3.1767      2.00000
      7       3.1767      2.00000
      8       4.3491      2.00000
      9      12.7080      0.00000
     10      13.3468      0.00000
     11      13.3468      0.00000
     12      13.6523      0.00000
     13      13.6523      0.00000
     14      13.8653      0.00000

 k-point   215 :       0.4737    0.4211    0.3684
  band No.  band energies     occupation 
      1       0.3234      2.00000
      2       0.7219      2.00000
      3       1.5065      2.00000
      4       1.8628      2.00000
      5       2.3957      2.00000
      6       2.7501      2.00000
      7       3.5255      2.00000
      8       3.9168      2.00000
      9      13.0007      0.00000
     10      13.2768      0.00000
     11      13.7408      0.00000
     12      13.8697      0.00000
     13      13.9209      0.00000
     14      14.2498      0.00000

 k-point   216 :       0.4737    0.4737    0.3684
  band No.  band energies     occupation 
      1       0.6797      2.00000
      2       1.0753      2.00000
      3       1.0753      2.00000
      4       1.4643      2.00000
      5       2.7089      2.00000
      6       3.0942      2.00000
      7       3.0942      2.00000
      8       3.4844      2.00000
      9      13.3049      0.00000
     10      13.6090      0.00000
     11      13.6091      0.00000
     12      13.9274      0.00000
     13      14.4781      0.00000
     14      14.5399      0.00000

 k-point   217 :       0.4211    0.4211    0.4211
  band No.  band energies     occupation 
      1       0.2811      2.00000
      2       1.4643      2.00000
      3       1.4643      2.00000
      4       1.4643      2.00000
      5       2.7090      2.00000
      6       2.7090      2.00000
      7       2.7090      2.00000
      8       3.8758      2.00000
      9      13.6446      0.00000
     10      13.6446      0.00000
     11      13.6446      0.00000
     12      14.1360      0.00000
     13      14.1360      0.00000
     14      14.1361      0.00000

 k-point   218 :       0.4737    0.4211    0.4211
  band No.  band energies     occupation 
      1       0.6374      2.00000
      2       1.0331      2.00000
      3       1.7776      2.00000
      4       1.7776      2.00000
      5       2.3140      2.00000
      6       2.3140      2.00000
      7       3.0530      2.00000
      8       3.4433      2.00000
      9      13.8779      0.00000
     10      13.8779      0.00000
     11      14.2127      0.00000
     12      14.2128      0.00000
     13      14.4496      0.00000
     14      14.5139      0.00000

 k-point   219 :       0.4737    0.4737    0.4211
  band No.  band energies     occupation 
      1       0.9909      2.00000
      2       1.3798      2.00000
      3       1.3798      2.00000
      4       1.7350      2.00000
      5       2.2731      2.00000
      6       2.6265      2.00000
      7       2.6265      2.00000
      8       3.0118      2.00000
      9      14.1795      0.00000
     10      14.4047      0.00000
     11      14.4120      0.00000
     12      14.6883      0.00000
     13      14.7099      0.00000
     14      14.7566      0.00000

 k-point   220 :       0.4737    0.4737    0.4737
  band No.  band energies     occupation 
      1       1.3375      2.00000
      2       1.6923      2.00000
      3       1.6923      2.00000
      4       1.6923      2.00000
      5       2.2323      2.00000
      6       2.2323      2.00000
      7       2.2323      2.00000
      8       2.5853      2.00000
      9      14.8994      0.00000
     10      14.9076      0.00000
     11      14.9178      0.00000
     12      14.9500      0.00000
     13      14.9740      0.00000
     14      14.9934      0.00000


--------------------------------------------------------------------------------------------------------


 soft charge-density along one line, spin component           1
         0         1         2         3         4         5         6         7         8         9
 total charge-density along one line

 pseudopotential strength for first ion, spin component:           1
  8.514  14.515   0.000   0.000  -0.000   0.000   0.000  -0.000
 14.515  24.744   0.000   0.000  -0.000   0.000   0.000  -0.000
  0.000   0.000   1.979   0.000  -0.000   5.724   0.000  -0.000
  0.000   0.000   0.000   1.979   0.000   0.000   5.724   0.000
 -0.000  -0.000  -0.000   0.000   1.979  -0.000   0.000   5.724
  0.000   0.000   5.724   0.000  -0.000  16.457   0.000  -0.000
  0.000   0.000   0.000   5.724   0.000   0.000  16.457   0.000
 -0.000  -0.000  -0.000   0.000   5.724  -0.000   0.000  16.457
 total augmentation occupancy for first ion, spin component:           1
  2.543  -0.464  -0.000   0.000  -0.000   0.000  -0.000  -0.000
 -0.464   0.165   0.000  -0.000  -0.000   0.000   0.000  -0.000
 -0.000   0.000   0.827   0.000  -0.000  -0.047  -0.000   0.000
  0.000  -0.000   0.000   0.827   0.000  -0.000  -0.047  -0.000
 -0.000  -0.000  -0.000   0.000   0.827   0.000  -0.000  -0.047
  0.000   0.000  -0.047  -0.000   0.000   0.003   0.000  -0.000
 -0.000   0.000  -0.000  -0.047  -0.000   0.000   0.003   0.000
 -0.000  -0.000   0.000  -0.000  -0.047  -0.000   0.000   0.003


------------------------ aborting loop because EDIFF is reached ----------------------------------------


    CHARGE:  cpu time      0.3758: real time      0.1879
    FORLOC:  cpu time      0.0004: real time      0.0004
    FORNL :  cpu time      2.0479: real time      1.0520
    STRESS:  cpu time      6.1316: real time      3.1748
    FORCOR:  cpu time      0.0373: real time      0.0173
    FORHAR:  cpu time      0.0090: real time      0.0050
    MIXING:  cpu time      0.0009: real time      0.0009
    OFIELD:  cpu time      0.0000: real time      0.0000

  FORCE on cell =-STRESS in cart. coord.  units (eV):
  Direction    XX          YY          ZZ          XY          YZ          ZX
  --------------------------------------------------------------------------------------
  Alpha Z    -0.65252    -0.65252    -0.65252
  Ewald     -91.04669   -91.04669   -91.04669    -0.00000     0.00000     0.00000
  Hartree     0.16588     0.16588     0.16588    -0.00000    -0.00000    -0.00000
  E(xc)     -32.17139   -32.17139   -32.17139     0.00000     0.00000    -0.00000
  Local      -2.96623    -2.96623    -2.96623     0.00000     0.00000     0.00000
  n-local    73.12929    73.54256    74.55980    -0.14836     0.05486    -0.05552
  augment    -4.76853    -4.76853    -4.76853     0.00000     0.00000     0.00000
  Kinetic    50.16197    52.15315    55.20194     1.62526    -7.40959    -1.78455
  Fock        0.00000     0.00000     0.00000     0.00000     0.00000     0.00000
  -------------------------------------------------------------------------------------
  Total      -5.18992    -5.18992    -5.18992     0.00000     0.00000    -0.00000
  in kB    -100.96301  -100.96301  -100.96301     0.00000     0.00000    -0.00000
  external pressure =     -100.96 kB  Pullay stress =        0.00 kB


 VOLUME and BASIS-vectors are now :
 -----------------------------------------------------------------------------
  energy-cutoff  :      400.00
  volume of cell :       82.36
      direct lattice vectors                 reciprocal lattice vectors
     4.350805121  0.000000000  0.000000000     0.229842517  0.000000000 -0.000000000
    -0.000000000  4.350805121  0.000000000     0.000000000  0.229842517  0.000000000
     0.000000000  0.000000000  4.350805121    -0.000000000 -0.000000000  0.229842517

  length of vectors
     4.350805121  4.350805121  4.350805121     0.229842517  0.229842517  0.229842517


 FORCES acting on ions
    electron-ion (+dipol)            ewald-force                    non-local-force                 convergence-correction
 -----------------------------------------------------------------------------------------------
   0.191E-15 -.130E-14 -.131E-14   -.214E-16 -.333E-15 -.641E-15   -.240E-24 -.130E-24 -.228E-24   0.124E-15 -.298E-16 -.771E-16
   -.693E-16 -.651E-14 -.461E-14   0.407E-16 0.295E-15 0.276E-15   0.543E-25 0.238E-25 0.578E-24   0.129E-15 0.387E-16 0.834E-16
   -.544E-14 -.687E-15 0.179E-14   -.500E-16 -.326E-15 0.267E-15   0.642E-24 0.164E-24 -.165E-24   -.108E-15 -.337E-17 0.101E-15
   -.467E-14 0.328E-14 0.240E-13   0.121E-16 0.301E-15 0.270E-16   0.280E-25 -.187E-24 -.622E-24   -.988E-16 0.264E-16 -.762E-16
 -----------------------------------------------------------------------------------------------
   -.999E-14 -.521E-14 0.199E-13   -.186E-16 -.624E-16 -.706E-16   0.484E-24 -.129E-24 -.437E-24   0.461E-16 0.320E-16 0.311E-16


 POSITION                                       TOTAL-FORCE (eV/Angst)
 -----------------------------------------------------------------------------------
      0.00000      0.00000      0.00000         0.000000     -0.000000      0.000000
     -0.00000      2.17540      2.17540        -0.000000      0.000000     -0.000000
      2.17540      0.00000      2.17540        -0.000000     -0.000000     -0.000000
      2.17540      2.17540      0.00000         0.000000      0.000000     -0.000000
 -----------------------------------------------------------------------------------
    total drift:                               -0.000000     -0.000000      0.000000


--------------------------------------------------------------------------------------------------------



  FREE ENERGIE OF THE ION-ELECTRON SYSTEM (eV)
  ---------------------------------------------------
  free  energy   TOTEN  =       -14.33627450 eV

  energy  without entropy=      -14.33486520  energy(sigma->0) =      -14.33580473



--------------------------------------------------------------------------------------------------------


    POTLOK:  cpu time      0.0461: real time      0.0220


--------------------------------------------------------------------------------------------------------




--------------------------------------------------------------------------------------------------------


  
 reached required accuracy - stopping structural energy minimisation
     LOOP+:  cpu time    119.0353: real time     60.6049
    4ORBIT:  cpu time      0.0000: real time      0.0000

 total amount of memory used by VASP MPI-rank0    38545. kBytes
=======================================================================

   base      :      30000. kBytes
   nonlr-proj:       1025. kBytes
   fftplans  :        531. kBytes
   grid      :       1507. kBytes
   one-center:         12. kBytes
   wavefun   :       5470. kBytes

  
  
 General timing and accounting informations for this job:
 ========================================================
  
                  Total CPU time used (sec):      122.139
                            User time (sec):      120.547
                          System time (sec):        1.592
                         Elapsed time (sec):       63.222
  
                   Maximum memory used (kb):       63036.
                   Average memory used (kb):          N/A
  
                          Minor page faults:        31471
                          Major page faults:           11
                 Voluntary context switches:         2056
