<?xml version="1.0" encoding="ISO-8859-1"?>
<modeling>
 <generator>
  <i name="program" type="string">vasp </i>
  <i name="version" type="string">6.4.2  </i>
  <i name="subversion" type="string">20Jul23 (build Apr 22 2024 22:35:45) complex                          parallel </i>
  <i name="platform" type="string">LinuxGNU </i>
  <i name="date" type="string">2024 05 26 </i>
  <i name="time" type="string">15:57:29 </i>
 </generator>
 <incar>
  <i type="string" name="SYSTEM">Al fcc relaxation</i>
  <i type="string" name="PREC">Accurate</i>
  <i type="string" name="ALGO">Fast</i>
  <i type="int" name="NELM">    60</i>
  <i type="int" name="NELMIN">     4</i>
  <i type="int" name="IBRION">     2</i>
  <i name="EDIFF">      0.00000100</i>
  <i type="int" name="NSW">   100</i>
  <i type="int" name="ISIF">     4</i>
  <i name="ENCUT">    400.00000000</i>
  <i type="string" name="LREAL">Auto</i>
  <i type="int" name="ISMEAR">     1</i>
  <i name="SIGMA">      0.20000000</i>
  <i name="KSPACING">      0.08000000</i>
  <i type="logical" name="LWAVE"> F  </i>
  <i type="logical" name="LCHARG"> F  </i>
 </incar>
 <primitive_cell>
  <structure name="primitive_cell" >
   <crystal>
    <varray name="basis" >
     <v>       2.17540256      -2.17540256       0.00000000 </v>
     <v>       2.17540256       0.00000000       2.17540256 </v>
     <v>       0.00000000      -2.17540256       2.17540256 </v>
    </varray>
    <i name="volume">     20.58964704 </i>
    <varray name="rec_basis" >
     <v>       0.22984252      -0.22984252      -0.22984252 </v>
     <v>       0.22984252       0.22984252       0.22984252 </v>
     <v>      -0.22984252      -0.22984252       0.22984252 </v>
    </varray>
   </crystal>
   <varray name="positions" >
    <v>       0.00000000       0.00000000       0.00000000 </v>
   </varray>
  </structure>
  <varray name="primitive_index" >
   <v type="int" >        1 </v>
  </varray>
 </primitive_cell>
 <kpoints>
  <generation param="Monkhorst-Pack">
   <v type="int" name="divisions">      19       19       19 </v>
   <v name="usershift">      0.00000000       0.00000000       0.00000000 </v>
   <v name="genvec1">      0.05263158      -0.00000000       0.00000000 </v>
   <v name="genvec2">      0.00000000       0.05263158       0.00000000 </v>
   <v name="genvec3">      0.00000000       0.00000000       0.05263158 </v>
   <v name="shift">      0.00000000       0.00000000       0.00000000 </v>
  </generation>
  <varray name="kpointlist" >
   <v>       0.00000000       0.00000000       0.00000000 </v>
   <v>       0.05263158       0.00000000       0.00000000 </v>
   <v>       0.10526316       0.00000000       0.00000000 </v>
   <v>       0.15789474       0.00000000       0.00000000 </v>
   <v>       0.21052632       0.00000000       0.00000000 </v>
   <v>       0.26315789       0.00000000       0.00000000 </v>
   <v>       0.31578947       0.00000000       0.00000000 </v>
   <v>       0.36842105       0.00000000       0.00000000 </v>
   <v>       0.42105263       0.00000000       0.00000000 </v>
   <v>       0.47368421       0.00000000       0.00000000 </v>
   <v>       0.05263158       0.05263158       0.00000000 </v>
   <v>       0.10526316       0.05263158       0.00000000 </v>
   <v>       0.15789474       0.05263158       0.00000000 </v>
   <v>       0.21052632       0.05263158       0.00000000 </v>
   <v>       0.26315789       0.05263158       0.00000000 </v>
   <v>       0.31578947       0.05263158       0.00000000 </v>
   <v>       0.36842105       0.05263158       0.00000000 </v>
   <v>       0.42105263       0.05263158       0.00000000 </v>
   <v>       0.47368421       0.05263158       0.00000000 </v>
   <v>       0.10526316       0.10526316       0.00000000 </v>
   <v>       0.15789474       0.10526316       0.00000000 </v>
   <v>       0.21052632       0.10526316       0.00000000 </v>
   <v>       0.26315789       0.10526316       0.00000000 </v>
   <v>       0.31578947       0.10526316       0.00000000 </v>
   <v>       0.36842105       0.10526316       0.00000000 </v>
   <v>       0.42105263       0.10526316       0.00000000 </v>
   <v>       0.47368421       0.10526316       0.00000000 </v>
   <v>       0.15789474       0.15789474       0.00000000 </v>
   <v>       0.21052632       0.15789474       0.00000000 </v>
   <v>       0.26315789       0.15789474       0.00000000 </v>
   <v>       0.31578947       0.15789474       0.00000000 </v>
   <v>       0.36842105       0.15789474       0.00000000 </v>
   <v>       0.42105263       0.15789474       0.00000000 </v>
   <v>       0.47368421       0.15789474       0.00000000 </v>
   <v>       0.21052632       0.21052632       0.00000000 </v>
   <v>       0.26315789       0.21052632       0.00000000 </v>
   <v>       0.31578947       0.21052632       0.00000000 </v>
   <v>       0.36842105       0.21052632       0.00000000 </v>
   <v>       0.42105263       0.21052632       0.00000000 </v>
   <v>       0.47368421       0.21052632       0.00000000 </v>
   <v>       0.26315789       0.26315789       0.00000000 </v>
   <v>       0.31578947       0.26315789       0.00000000 </v>
   <v>       0.36842105       0.26315789       0.00000000 </v>
   <v>       0.42105263       0.26315789       0.00000000 </v>
   <v>       0.47368421       0.26315789       0.00000000 </v>
   <v>       0.31578947       0.31578947       0.00000000 </v>
   <v>       0.36842105       0.31578947       0.00000000 </v>
   <v>       0.42105263       0.31578947       0.00000000 </v>
   <v>       0.47368421       0.31578947       0.00000000 </v>
   <v>       0.36842105       0.36842105       0.00000000 </v>
   <v>       0.42105263       0.36842105       0.00000000 </v>
   <v>       0.47368421       0.36842105       0.00000000 </v>
   <v>       0.42105263       0.42105263       0.00000000 </v>
   <v>       0.47368421       0.42105263       0.00000000 </v>
   <v>       0.47368421       0.47368421       0.00000000 </v>
   <v>       0.05263158       0.05263158       0.05263158 </v>
   <v>       0.10526316       0.05263158       0.05263158 </v>
   <v>       0.15789474       0.05263158       0.05263158 </v>
   <v>       0.21052632       0.05263158       0.05263158 </v>
   <v>       0.26315789       0.05263158       0.05263158 </v>
   <v>       0.31578947       0.05263158       0.05263158 </v>
   <v>       0.36842105       0.05263158       0.05263158 </v>
   <v>       0.42105263       0.05263158       0.05263158 </v>
   <v>       0.47368421       0.05263158       0.05263158 </v>
   <v>       0.10526316       0.10526316       0.05263158 </v>
   <v>       0.15789474       0.10526316       0.05263158 </v>
   <v>       0.21052632       0.10526316       0.05263158 </v>
   <v>       0.26315789       0.10526316       0.05263158 </v>
   <v>       0.31578947       0.10526316       0.05263158 </v>
   <v>       0.36842105       0.10526316       0.05263158 </v>
   <v>       0.42105263       0.10526316       0.05263158 </v>
   <v>       0.47368421       0.10526316       0.05263158 </v>
   <v>       0.15789474       0.15789474       0.05263158 </v>
   <v>       0.21052632       0.15789474       0.05263158 </v>
   <v>       0.26315789       0.15789474       0.05263158 </v>
   <v>       0.31578947       0.15789474       0.05263158 </v>
   <v>       0.36842105       0.15789474       0.05263158 </v>
   <v>       0.42105263       0.15789474       0.05263158 </v>
   <v>       0.47368421       0.15789474       0.05263158 </v>
   <v>       0.21052632       0.21052632       0.05263158 </v>
   <v>       0.26315789       0.21052632       0.05263158 </v>
   <v>       0.31578947       0.21052632       0.05263158 </v>
   <v>       0.36842105       0.21052632       0.05263158 </v>
   <v>       0.42105263       0.21052632       0.05263158 </v>
   <v>       0.47368421       0.21052632       0.05263158 </v>
   <v>       0.26315789       0.26315789       0.05263158 </v>
   <v>       0.31578947       0.26315789       0.05263158 </v>
   <v>       0.36842105       0.26315789       0.05263158 </v>
   <v>       0.42105263       0.26315789       0.05263158 </v>
   <v>       0.47368421       0.26315789       0.05263158 </v>
   <v>       0.31578947       0.31578947       0.05263158 </v>
   <v>       0.36842105       0.31578947       0.05263158 </v>
   <v>       0.42105263       0.31578947       0.05263158 </v>
   <v>       0.47368421       0.31578947       0.05263158 </v>
   <v>       0.36842105       0.36842105       0.05263158 </v>
   <v>       0.42105263       0.36842105       0.05263158 </v>
   <v>       0.47368421       0.36842105       0.05263158 </v>
   <v>       0.42105263       0.42105263       0.05263158 </v>
   <v>       0.47368421       0.42105263       0.05263158 </v>
   <v>       0.47368421       0.47368421       0.05263158 </v>
   <v>       0.10526316       0.10526316       0.10526316 </v>
   <v>       0.15789474       0.10526316       0.10526316 </v>
   <v>       0.21052632       0.10526316       0.10526316 </v>
   <v>       0.26315789       0.10526316       0.10526316 </v>
   <v>       0.31578947       0.10526316       0.10526316 </v>
   <v>       0.36842105       0.10526316       0.10526316 </v>
   <v>       0.42105263       0.10526316       0.10526316 </v>
   <v>       0.47368421       0.10526316       0.10526316 </v>
   <v>       0.15789474       0.15789474       0.10526316 </v>
   <v>       0.21052632       0.15789474       0.10526316 </v>
   <v>       0.26315789       0.15789474       0.10526316 </v>
   <v>       0.31578947       0.15789474       0.10526316 </v>
   <v>       0.36842105       0.15789474       0.10526316 </v>
   <v>       0.42105263       0.15789474       0.10526316 </v>
   <v>       0.47368421       0.15789474       0.10526316 </v>
   <v>       0.21052632       0.21052632       0.10526316 </v>
   <v>       0.26315789       0.21052632       0.10526316 </v>
   <v>       0.31578947       0.21052632       0.10526316 </v>
   <v>       0.36842105       0.21052632       0.10526316 </v>
   <v>       0.42105263       0.21052632       0.10526316 </v>
   <v>       0.47368421       0.21052632       0.10526316 </v>
   <v>       0.26315789       0.26315789       0.10526316 </v>
   <v>       0.31578947       0.26315789       0.10526316 </v>
   <v>       0.36842105       0.26315789       0.10526316 </v>
   <v>       0.42105263       0.26315789       0.10526316 </v>
   <v>       0.47368421       0.26315789       0.10526316 </v>
   <v>       0.31578947       0.31578947       0.10526316 </v>
   <v>       0.36842105       0.31578947       0.10526316 </v>
   <v>       0.42105263       0.31578947       0.10526316 </v>
   <v>       0.47368421       0.31578947       0.10526316 </v>
   <v>       0.36842105       0.36842105       0.10526316 </v>
   <v>       0.42105263       0.36842105       0.10526316 </v>
   <v>       0.47368421       0.36842105       0.10526316 </v>
   <v>       0.42105263       0.42105263       0.10526316 </v>
   <v>       0.47368421       0.42105263       0.10526316 </v>
   <v>       0.47368421       0.47368421       0.10526316 </v>
   <v>       0.15789474       0.15789474       0.15789474 </v>
   <v>       0.21052632       0.15789474       0.15789474 </v>
   <v>       0.26315789       0.15789474       0.15789474 </v>
   <v>       0.31578947       0.15789474       0.15789474 </v>
   <v>       0.36842105       0.15789474       0.15789474 </v>
   <v>       0.42105263       0.15789474       0.15789474 </v>
   <v>       0.47368421       0.15789474       0.15789474 </v>
   <v>       0.21052632       0.21052632       0.15789474 </v>
   <v>       0.26315789       0.21052632       0.15789474 </v>
   <v>       0.31578947       0.21052632       0.15789474 </v>
   <v>       0.36842105       0.21052632       0.15789474 </v>
   <v>       0.42105263       0.21052632       0.15789474 </v>
   <v>       0.47368421       0.21052632       0.15789474 </v>
   <v>       0.26315789       0.26315789       0.15789474 </v>
   <v>       0.31578947       0.26315789       0.15789474 </v>
   <v>       0.36842105       0.26315789       0.15789474 </v>
   <v>       0.42105263       0.26315789       0.15789474 </v>
   <v>       0.47368421       0.26315789       0.15789474 </v>
   <v>       0.31578947       0.31578947       0.15789474 </v>
   <v>       0.36842105       0.31578947       0.15789474 </v>
   <v>       0.42105263       0.31578947       0.15789474 </v>
   <v>       0.47368421       0.31578947       0.15789474 </v>
   <v>       0.36842105       0.36842105       0.15789474 </v>
   <v>       0.42105263       0.36842105       0.15789474 </v>
   <v>       0.47368421       0.36842105       0.15789474 </v>
   <v>       0.42105263       0.42105263       0.15789474 </v>
   <v>       0.47368421       0.42105263       0.15789474 </v>
   <v>       0.47368421       0.47368421       0.15789474 </v>
   <v>       0.21052632       0.21052632       0.21052632 </v>
   <v>       0.26315789       0.21052632       0.21052632 </v>
   <v>       0.31578947       0.21052632       0.21052632 </v>
   <v>       0.36842105       0.21052632       0.21052632 </v>
   <v>       0.42105263       0.21052632       0.21052632 </v>
   <v>       0.47368421       0.21052632       0.21052632 </v>
   <v>       0.26315789       0.26315789       0.21052632 </v>
   <v>       0.31578947       0.26315789       0.21052632 </v>
   <v>       0.36842105       0.26315789       0.21052632 </v>
   <v>       0.42105263       0.26315789       0.21052632 </v>
   <v>       0.47368421       0.26315789       0.21052632 </v>
   <v>       0.31578947       0.31578947       0.21052632 </v>
   <v>       0.36842105       0.31578947       0.21052632 </v>
   <v>       0.42105263       0.31578947       0.21052632 </v>
   <v>       0.47368421       0.31578947       0.21052632 </v>
   <v>       0.36842105       0.36842105       0.21052632 </v>
   <v>       0.42105263       0.36842105       0.21052632 </v>
   <v>       0.47368421       0.36842105       0.21052632 </v>
   <v>       0.42105263       0.42105263       0.21052632 </v>
   <v>       0.47368421       0.42105263       0.21052632 </v>
   <v>       0.47368421       0.47368421       0.21052632 </v>
   <v>       0.26315789       0.26315789       0.26315789 </v>
   <v>       0.31578947       0.26315789       0.26315789 </v>
   <v>       0.36842105       0.26315789       0.26315789 </v>
   <v>       0.42105263       0.26315789       0.26315789 </v>
   <v>       0.47368421       0.26315789       0.26315789 </v>
   <v>       0.31578947       0.31578947       0.26315789 </v>
   <v>       0.36842105       0.31578947       0.26315789 </v>
   <v>       0.42105263       0.31578947       0.26315789 </v>
   <v>       0.47368421       0.31578947       0.26315789 </v>
   <v>       0.36842105       0.36842105       0.26315789 </v>
   <v>       0.42105263       0.36842105       0.26315789 </v>
   <v>       0.47368421       0.36842105       0.26315789 </v>
   <v>       0.42105263       0.42105263       0.26315789 </v>
   <v>       0.47368421       0.42105263       0.26315789 </v>
   <v>       0.47368421       0.47368421       0.26315789 </v>
   <v>       0.31578947       0.31578947       0.31578947 </v>
   <v>       0.36842105       0.31578947       0.31578947 </v>
   <v>       0.42105263       0.31578947       0.31578947 </v>
   <v>       0.47368421       0.31578947       0.31578947 </v>
   <v>       0.36842105       0.36842105       0.31578947 </v>
   <v>       0.42105263       0.36842105       0.31578947 </v>
   <v>       0.47368421       0.36842105       0.31578947 </v>
   <v>       0.42105263       0.42105263       0.31578947 </v>
   <v>       0.47368421       0.42105263       0.31578947 </v>
   <v>       0.47368421       0.47368421       0.31578947 </v>
   <v>       0.36842105       0.36842105       0.36842105 </v>
   <v>       0.42105263       0.36842105       0.36842105 </v>
   <v>       0.47368421       0.36842105       0.36842105 </v>
   <v>       0.42105263       0.42105263       0.36842105 </v>
   <v>       0.47368421       0.42105263       0.36842105 </v>
   <v>       0.47368421       0.47368421       0.36842105 </v>
   <v>       0.42105263       0.42105263       0.42105263 </v>
   <v>       0.47368421       0.42105263       0.42105263 </v>
   <v>       0.47368421       0.47368421       0.42105263 </v>
   <v>       0.47368421       0.47368421       0.47368421 </v>
  </varray>
  <varray name="weights" >
   <v>       0.00014579 </v>
   <v>       0.00087476 </v>
   <v>       0.00087476 </v>
   <v>       0.00087476 </v>
   <v>       0.00087476 </v>
   <v>       0.00087476 </v>
   <v>       0.00087476 </v>
   <v>       0.00087476 </v>
   <v>       0.00087476 </v>
   <v>       0.00087476 </v>
   <v>       0.00174953 </v>
   <v>       0.00349905 </v>
   <v>       0.00349905 </v>
   <v>       0.00349905 </v>
   <v>       0.00349905 </v>
   <v>       0.00349905 </v>
   <v>       0.00349905 </v>
   <v>       0.00349905 </v>
   <v>       0.00349905 </v>
   <v>       0.00174953 </v>
   <v>       0.00349905 </v>
   <v>       0.00349905 </v>
   <v>       0.00349905 </v>
   <v>       0.00349905 </v>
   <v>       0.00349905 </v>
   <v>       0.00349905 </v>
   <v>       0.00349905 </v>
   <v>       0.00174953 </v>
   <v>       0.00349905 </v>
   <v>       0.00349905 </v>
   <v>       0.00349905 </v>
   <v>       0.00349905 </v>
   <v>       0.00349905 </v>
   <v>       0.00349905 </v>
   <v>       0.00174953 </v>
   <v>       0.00349905 </v>
   <v>       0.00349905 </v>
   <v>       0.00349905 </v>
   <v>       0.00349905 </v>
   <v>       0.00349905 </v>
   <v>       0.00174953 </v>
   <v>       0.00349905 </v>
   <v>       0.00349905 </v>
   <v>       0.00349905 </v>
   <v>       0.00349905 </v>
   <v>       0.00174953 </v>
   <v>       0.00349905 </v>
   <v>       0.00349905 </v>
   <v>       0.00349905 </v>
   <v>       0.00174953 </v>
   <v>       0.00349905 </v>
   <v>       0.00349905 </v>
   <v>       0.00174953 </v>
   <v>       0.00349905 </v>
   <v>       0.00174953 </v>
   <v>       0.00116635 </v>
   <v>       0.00349905 </v>
   <v>       0.00349905 </v>
   <v>       0.00349905 </v>
   <v>       0.00349905 </v>
   <v>       0.00349905 </v>
   <v>       0.00349905 </v>
   <v>       0.00349905 </v>
   <v>       0.00349905 </v>
   <v>       0.00349905 </v>
   <v>       0.00699810 </v>
   <v>       0.00699810 </v>
   <v>       0.00699810 </v>
   <v>       0.00699810 </v>
   <v>       0.00699810 </v>
   <v>       0.00699810 </v>
   <v>       0.00699810 </v>
   <v>       0.00349905 </v>
   <v>       0.00699810 </v>
   <v>       0.00699810 </v>
   <v>       0.00699810 </v>
   <v>       0.00699810 </v>
   <v>       0.00699810 </v>
   <v>       0.00699810 </v>
   <v>       0.00349905 </v>
   <v>       0.00699810 </v>
   <v>       0.00699810 </v>
   <v>       0.00699810 </v>
   <v>       0.00699810 </v>
   <v>       0.00699810 </v>
   <v>       0.00349905 </v>
   <v>       0.00699810 </v>
   <v>       0.00699810 </v>
   <v>       0.00699810 </v>
   <v>       0.00699810 </v>
   <v>       0.00349905 </v>
   <v>       0.00699810 </v>
   <v>       0.00699810 </v>
   <v>       0.00699810 </v>
   <v>       0.00349905 </v>
   <v>       0.00699810 </v>
   <v>       0.00699810 </v>
   <v>       0.00349905 </v>
   <v>       0.00699810 </v>
   <v>       0.00349905 </v>
   <v>       0.00116635 </v>
   <v>       0.00349905 </v>
   <v>       0.00349905 </v>
   <v>       0.00349905 </v>
   <v>       0.00349905 </v>
   <v>       0.00349905 </v>
   <v>       0.00349905 </v>
   <v>       0.00349905 </v>
   <v>       0.00349905 </v>
   <v>       0.00699810 </v>
   <v>       0.00699810 </v>
   <v>       0.00699810 </v>
   <v>       0.00699810 </v>
   <v>       0.00699810 </v>
   <v>       0.00699810 </v>
   <v>       0.00349905 </v>
   <v>       0.00699810 </v>
   <v>       0.00699810 </v>
   <v>       0.00699810 </v>
   <v>       0.00699810 </v>
   <v>       0.00699810 </v>
   <v>       0.00349905 </v>
   <v>       0.00699810 </v>
   <v>       0.00699810 </v>
   <v>       0.00699810 </v>
   <v>       0.00699810 </v>
   <v>       0.00349905 </v>
   <v>       0.00699810 </v>
   <v>       0.00699810 </v>
   <v>       0.00699810 </v>
   <v>       0.00349905 </v>
   <v>       0.00699810 </v>
   <v>       0.00699810 </v>
   <v>       0.00349905 </v>
   <v>       0.00699810 </v>
   <v>       0.00349905 </v>
   <v>       0.00116635 </v>
   <v>       0.00349905 </v>
   <v>       0.00349905 </v>
   <v>       0.00349905 </v>
   <v>       0.00349905 </v>
   <v>       0.00349905 </v>
   <v>       0.00349905 </v>
   <v>       0.00349905 </v>
   <v>       0.00699810 </v>
   <v>       0.00699810 </v>
   <v>       0.00699810 </v>
   <v>       0.00699810 </v>
   <v>       0.00699810 </v>
   <v>       0.00349905 </v>
   <v>       0.00699810 </v>
   <v>       0.00699810 </v>
   <v>       0.00699810 </v>
   <v>       0.00699810 </v>
   <v>       0.00349905 </v>
   <v>       0.00699810 </v>
   <v>       0.00699810 </v>
   <v>       0.00699810 </v>
   <v>       0.00349905 </v>
   <v>       0.00699810 </v>
   <v>       0.00699810 </v>
   <v>       0.00349905 </v>
   <v>       0.00699810 </v>
   <v>       0.00349905 </v>
   <v>       0.00116635 </v>
   <v>       0.00349905 </v>
   <v>       0.00349905 </v>
   <v>       0.00349905 </v>
   <v>       0.00349905 </v>
   <v>       0.00349905 </v>
   <v>       0.00349905 </v>
   <v>       0.00699810 </v>
   <v>       0.00699810 </v>
   <v>       0.00699810 </v>
   <v>       0.00699810 </v>
   <v>       0.00349905 </v>
   <v>       0.00699810 </v>
   <v>       0.00699810 </v>
   <v>       0.00699810 </v>
   <v>       0.00349905 </v>
   <v>       0.00699810 </v>
   <v>       0.00699810 </v>
   <v>       0.00349905 </v>
   <v>       0.00699810 </v>
   <v>       0.00349905 </v>
   <v>       0.00116635 </v>
   <v>       0.00349905 </v>
   <v>       0.00349905 </v>
   <v>       0.00349905 </v>
   <v>       0.00349905 </v>
   <v>       0.00349905 </v>
   <v>       0.00699810 </v>
   <v>       0.00699810 </v>
   <v>       0.00699810 </v>
   <v>       0.00349905 </v>
   <v>       0.00699810 </v>
   <v>       0.00699810 </v>
   <v>       0.00349905 </v>
   <v>       0.00699810 </v>
   <v>       0.00349905 </v>
   <v>       0.00116635 </v>
   <v>       0.00349905 </v>
   <v>       0.00349905 </v>
   <v>       0.00349905 </v>
   <v>       0.00349905 </v>
   <v>       0.00699810 </v>
   <v>       0.00699810 </v>
   <v>       0.00349905 </v>
   <v>       0.00699810 </v>
   <v>       0.00349905 </v>
   <v>       0.00116635 </v>
   <v>       0.00349905 </v>
   <v>       0.00349905 </v>
   <v>       0.00349905 </v>
   <v>       0.00699810 </v>
   <v>       0.00349905 </v>
   <v>       0.00116635 </v>
   <v>       0.00349905 </v>
   <v>       0.00349905 </v>
   <v>       0.00116635 </v>
  </varray>
 </kpoints>
 <parameters>
  <separator name="general" >
   <i type="string" name="SYSTEM">Al fcc relaxation</i>
   <i type="logical" name="LCOMPAT"> F  </i>
  </separator>
  <separator name="electronic" >
   <i type="string" name="PREC">accura</i>
   <i name="ENMAX">    400.00000000</i>
   <i name="ENAUG">    291.05200000</i>
   <i name="EDIFF">      0.00000100</i>
   <i type="int" name="IALGO">    68</i>
   <i type="int" name="IWAVPR">    11</i>
   <i type="int" name="NBANDS">    14</i>
   <i type="int" name="NBANDSLOW">    -1</i>
   <i type="int" name="NBANDSHIGH">    -1</i>
   <i name="NELECT">     12.00000000</i>
   <i type="int" name="TURBO">     0</i>
   <i type="int" name="IRESTART">     0</i>
   <i type="int" name="NREBOOT">     0</i>
   <i type="int" name="NMIN">     0</i>
   <i name="EREF">      0.00000000</i>
   <separator name="electronic smearing" >
    <i type="int" name="ISMEAR">     1</i>
    <i name="SIGMA">      0.20000000</i>
    <i name="KSPACING">      0.08000000</i>
    <i type="logical" name="KGAMMA"> T  </i>
    <i type="logical" name="KBLOWUP"> T  </i>
   </separator>
   <separator name="electronic projectors" >
    <i type="logical" name="LREAL"> T  </i>
    <v name="ROPT">     -0.00025000</v>
    <i type="int" name="LMAXPAW">  -100</i>
    <i type="int" name="LMAXMIX">     2</i>
    <i type="logical" name="NLSPLINE"> F  </i>
   </separator>
   <separator name="electronic startup" >
    <i type="int" name="ISTART">     0</i>
    <i type="int" name="ICHARG">     2</i>
    <i type="int" name="INIWAV">     1</i>
   </separator>
   <separator name="electronic spin" >
    <i type="int" name="ISPIN">     1</i>
    <i type="logical" name="LNONCOLLINEAR"> F  </i>
    <v name="MAGMOM">      1.00000000      1.00000000      1.00000000      1.00000000</v>
    <i name="NUPDOWN">     -1.00000000</i>
    <i type="logical" name="LSORBIT"> F  </i>
    <v name="SAXIS">      0.00000000      0.00000000      1.00000000</v>
    <i type="logical" name="LSPIRAL"> F  </i>
    <v name="QSPIRAL">      0.00000000      0.00000000      0.00000000</v>
    <i type="logical" name="LZEROZ"> F  </i>
   </separator>
   <separator name="electronic exchange-correlation" >
    <i type="logical" name="LASPH"> F  </i>
    <i type="logical" name="LMETAGGA"> F  </i>
   </separator>
   <separator name="electronic convergence" >
    <i type="int" name="NELM">    60</i>
    <i type="int" name="NELMDL">    -5</i>
    <i type="int" name="NELMIN">     4</i>
    <i name="ENINI">    400.00000000</i>
    <separator name="electronic convergence detail" >
     <i type="logical" name="LDIAG"> T  </i>
     <i type="logical" name="LSUBROT"> F  </i>
     <i name="WEIMIN">      0.00100000</i>
     <i name="EBREAK">      0.00000002</i>
     <i name="DEPER">      0.30000000</i>
     <i type="int" name="NRMM">     4</i>
     <i name="TIME">      0.40000000</i>
    </separator>
   </separator>
   <separator name="electronic mixer" >
    <i name="AMIX">      0.40000000</i>
    <i name="BMIX">      1.00000000</i>
    <i name="AMIN">      0.10000000</i>
    <i name="AMIX_MAG">      1.60000000</i>
    <i name="BMIX_MAG">      1.00000000</i>
    <separator name="electronic mixer details" >
     <i type="int" name="IMIX">     4</i>
     <i type="logical" name="MIXFIRST"> F  </i>
     <i type="int" name="MAXMIX">   -45</i>
     <i name="WC">    100.00000000</i>
     <i type="int" name="INIMIX">     1</i>
     <i type="int" name="MIXPRE">     1</i>
     <i type="int" name="MREMOVE">     5</i>
    </separator>
   </separator>
   <separator name="electronic dipolcorrection" >
    <i type="logical" name="LDIPOL"> F  </i>
    <i type="logical" name="LMONO"> F  </i>
    <i type="int" name="IDIPOL">     0</i>
    <i name="EPSILON">      1.00000000</i>
    <v name="DIPOL">   -100.00000000   -100.00000000   -100.00000000</v>
    <i name="EFIELD">      0.00000000</i>
   </separator>
  </separator>
  <separator name="grids" >
   <i type="int" name="NGX">    28</i>
   <i type="int" name="NGY">    28</i>
   <i type="int" name="NGZ">    28</i>
   <i type="int" name="NGXF">    56</i>
   <i type="int" name="NGYF">    56</i>
   <i type="int" name="NGZF">    56</i>
   <i type="logical" name="ADDGRID"> F  </i>
  </separator>
  <separator name="ionic" >
   <i type="int" name="NSW">   100</i>
   <i type="int" name="IBRION">     2</i>
   <i type="int" name="MDALGO">     0</i>
   <i type="int" name="ISIF">     4</i>
   <i name="PSTRESS">      0.00000000</i>
   <i name="EDIFFG">      0.00001000</i>
   <i type="int" name="NFREE">     1</i>
   <i name="POTIM">      0.50000000</i>
   <i name="SMASS">     -3.00000000</i>
   <i name="SCALEE">      1.00000000</i>
  </separator>
  <separator name="ionic md" >
   <i name="TEBEG">      0.00010000</i>
   <i name="TEEND">      0.00010000</i>
   <i type="int" name="NBLOCK">     1</i>
   <i type="int" name="KBLOCK">   100</i>
   <i type="int" name="NPACO">   256</i>
   <i name="APACO">     10.00000000</i>
  </separator>
  <separator name="symmetry" >
   <i type="int" name="ISYM">     2</i>
   <i name="SYMPREC">      0.00001000</i>
  </separator>
  <separator name="dos" >
   <i type="int" name="LORBIT">     0</i>
   <v name="RWIGS">     -1.00000000</v>
   <i type="int" name="NEDOS">   301</i>
   <i name="EMIN">     10.00000000</i>
   <i name="EMAX">    -10.00000000</i>
   <i name="EFERMI">      0.00000000</i>
  </separator>
  <separator name="writing" >
   <i type="int" name="NWRITE">     2</i>
   <i type="logical" name="LWAVE"> F  </i>
   <i type="logical" name="LDOWNSAMPLE"> F  </i>
   <i type="logical" name="LCHARG"> F  </i>
   <i type="logical" name="LPARD"> F  </i>
   <i type="logical" name="LVTOT"> F  </i>
   <i type="logical" name="LVHAR"> F  </i>
   <i type="logical" name="LELF"> F  </i>
   <i type="logical" name="LOPTICS"> F  </i>
   <v name="STM">      0.00000000      0.00000000      0.00000000      0.00000000      0.00000000      0.00000000      0.00000000</v>
  </separator>
  <separator name="performance" >
   <i type="int" name="NPAR">    14</i>
   <i type="int" name="NSIM">     4</i>
   <i type="int" name="NBLK">    -1</i>
   <i type="logical" name="LPLANE"> T  </i>
   <i type="logical" name="LSCALAPACK"> T  </i>
   <i type="logical" name="LSCAAWARE"> F  </i>
   <i type="logical" name="LSCALU"> F  </i>
   <i type="logical" name="LASYNC"> F  </i>
   <i type="logical" name="LORBITALREAL"> F  </i>
  </separator>
  <separator name="miscellaneous" >
   <i type="int" name="IDIOT">     3</i>
   <i type="int" name="PHON_NSTRUCT">    -1</i>
   <i type="logical" name="LMUSIC"> F  </i>
   <v name="POMASS">     26.98100000</v>
   <v name="DARWINR">      0.00000000</v>
   <v name="DARWINV">      1.00000000</v>
   <i type="logical" name="LCORR"> T  </i>
  </separator>
  <i type="logical" name="GGA_COMPAT"> T  </i>
  <i type="logical" name="LBERRY"> F  </i>
  <i type="int" name="ICORELEVEL">     0</i>
  <i type="logical" name="LDAU"> F  </i>
  <i type="int" name="I_CONSTRAINED_M">     0</i>
  <separator name="electronic exchange-correlation" >
   <i type="string" name="GGA">--</i>
   <i type="int" name="VOSKOWN">     0</i>
   <i type="logical" name="LHFCALC"> F  </i>
   <i type="string" name="PRECFOCK"></i>
   <i type="logical" name="LSYMGRAD"> F  </i>
   <i type="logical" name="LHFONE"> F  </i>
   <i type="logical" name="LRHFCALC"> F  </i>
   <i type="logical" name="LTHOMAS"> F  </i>
   <i type="logical" name="LMODELHF"> F  </i>
   <i type="logical" name="LFOCKACE"> F  </i>
   <i name="ENCUT4O">     -1.00000000</i>
   <i type="int" name="EXXOEP">     0</i>
   <i type="int" name="FOURORBIT">     0</i>
   <i name="AEXX">      0.00000000</i>
   <i name="HFALPHA">      0.00000000</i>
   <i name="MCALPHA">      0.00000000</i>
   <i name="ALDAX">      1.00000000</i>
   <i name="AGGAX">      1.00000000</i>
   <i name="ALDAC">      1.00000000</i>
   <i name="AGGAC">      1.00000000</i>
   <i type="int" name="NKREDX">     1</i>
   <i type="int" name="NKREDY">     1</i>
   <i type="int" name="NKREDZ">     1</i>
   <i type="logical" name="SHIFTRED"> F  </i>
   <i type="logical" name="ODDONLY"> F  </i>
   <i type="logical" name="EVENONLY"> F  </i>
   <i type="int" name="LMAXFOCK">     0</i>
   <i type="int" name="NMAXFOCKAE">     0</i>
   <i type="logical" name="LFOCKAEDFT"> F  </i>
   <i name="HFSCREEN">      0.00000000</i>
   <i name="HFSCREENC">      0.00000000</i>
   <i type="int" name="NBANDSGWLOW">     0</i>
  </separator>
  <separator name="vdW DFT" >
   <i type="logical" name="LUSE_VDW"> F  </i>
   <i type="int" name="IVDW_NL">     1</i>
   <i type="logical" name="LSPIN_VDW"> F  </i>
   <i name="Zab_VDW">     -0.84910000</i>
   <i name="PARAM1">      0.12340000</i>
   <i name="PARAM2">      1.00000000</i>
   <i name="PARAM3">      0.00000000</i>
  </separator>
  <separator name="model GW" >
   <i type="int" name="MODEL_GW">     0</i>
   <i name="MODEL_EPS0">     12.35378822</i>
   <i name="MODEL_ALPHA">      1.00000000</i>
  </separator>
  <separator name="linear response parameters" >
   <i type="logical" name="LEPSILON"> F  </i>
   <i type="logical" name="LRPA"> F  </i>
   <i type="logical" name="LNABLA"> F  </i>
   <i type="logical" name="LVEL"> F  </i>
   <i name="CSHIFT">      0.10000000</i>
   <i name="OMEGAMAX">     -1.00000000</i>
   <i name="DEG_THRESHOLD">      0.00200000</i>
   <i name="RTIME">     -0.10000000</i>
   <i name="WPLASMAI">      0.00000000</i>
   <v name="DFIELD">      0.00000000      0.00000000      0.00000000</v>
   <v name="WPLASMA">      0.00000000      0.00000000      0.00000000      0.00000000      0.00000000      0.00000000      0.00000000      0.00000000      0.00000000</v>
  </separator>
  <separator name="orbital magnetization" >
   <i type="logical" name="NUCIND"> F  </i>
   <v name="MAGPOS">      0.00000000      0.00000000      0.00000000</v>
   <i type="logical" name="LNICSALL"> T  </i>
   <i type="logical" name="ORBITALMAG"> F  </i>
   <i type="logical" name="LMAGBLOCH"> F  </i>
   <i type="logical" name="LCHIMAG"> F  </i>
   <i type="logical" name="LGAUGE"> T  </i>
   <i type="int" name="MAGATOM">     0</i>
   <v name="MAGDIPOL">      0.00000000      0.00000000      0.00000000</v>
   <v name="AVECCONST">      0.00000000      0.00000000      0.00000000</v>
  </separator>
  <separator name="response functions" >
   <i type="logical" name="LALL_IN_ONE"> F  </i>
   <i type="int" name="IALL_IN_ONE">    -1</i>
   <i type="int" name="NBANDS_WAVE">    -1</i>
   <i type="logical" name="LFINITE_TEMPERATURE"> F  </i>
   <i type="logical" name="LADDER"> F  </i>
   <i type="logical" name="LRPAFORCE"> F  </i>
   <i type="logical" name="LFXC"> F  </i>
   <i type="logical" name="LHARTREE"> T  </i>
   <i type="int" name="IBSE">     0</i>
   <v type="int" name="KPOINT">    -1     0     0     0</v>
   <i type="logical" name="LTCTC"> F  </i>
   <i type="logical" name="LTCTE"> F  </i>
   <i type="logical" name="LTETE"> F  </i>
   <i type="logical" name="LTRIPLET"> F  </i>
   <i type="logical" name="LFXCEPS"> F  </i>
   <i type="logical" name="LFXHEG"> F  </i>
   <i type="int" name="NATURALO">     2</i>
   <i type="logical" name="LHOLEGF"> F  </i>
   <i type="logical" name="L2ORDER"> F  </i>
   <i type="logical" name="LDMP1"> F  </i>
   <i type="logical" name="LMP2LT"> F  </i>
   <i type="logical" name="LSMP2LT"> F  </i>
   <i type="logical" name="LGWLF"> F  </i>
   <i name="ENCUTGW">     -1.60000002</i>
   <i name="ENCUTGWSOFT">     -1.60000002</i>
   <i name="ENCUTLF">     -1.00000000</i>
   <i type="logical" name="LESF_SPLINES"> F  </i>
   <i type="int" name="LMAXMP2">    -1</i>
   <i name="SCISSOR">      0.00000000</i>
   <i type="int" name="NOMEGA">     0</i>
   <i type="int" name="NOMEGAR">     0</i>
   <i type="int" name="NBANDSGW">    -1</i>
   <i type="int" name="NBANDSO">    -1</i>
   <i type="int" name="NBANDSV">    -1</i>
   <i type="int" name="NELMGW">     1</i>
   <i type="int" name="NELMHF">     1</i>
   <i type="int" name="DIM">     3</i>
   <i type="int" name="IESPILON">     4</i>
   <i type="int" name="ANTIRES">     0</i>
   <i name="OMEGAMAX">    -30.00000000</i>
   <i name="OMEGAMIN">    -30.00000000</i>
   <i name="OMEGATL">   -200.00000000</i>
   <i type="int" name="OMEGAGRID">     0</i>
   <i name="CSHIFT">     -0.10000000</i>
   <i type="logical" name="LSELFENERGY"> F  </i>
   <i type="logical" name="LSPECTRAL"> F  </i>
   <i type="logical" name="LSPECTRALGW"> F  </i>
   <i type="logical" name="LSINGLES"> F  </i>
   <i type="logical" name="LFERMIGW"> F  </i>
   <i type="logical" name="ODDONLYGW"> F  </i>
   <i type="logical" name="EVENONLYGW"> F  </i>
   <i type="int" name="NKREDLFX">     1</i>
   <i type="int" name="NKREDLFY">     1</i>
   <i type="int" name="NKREDLFZ">     1</i>
   <i type="int" name="MAXMEM">  2800</i>
   <i type="int" name="TELESCOPE">     0</i>
   <i type="int" name="NTAUPAR">    -1</i>
   <i type="int" name="NOMEGAPAR">    -1</i>
   <i name="DAMP_NEWTON">      0.80000001</i>
   <i name="LAMBDA">      1.00000000</i>
  </separator>
  <separator name="External order field" >
   <i name="OFIELD_KAPPA">      0.00000000</i>
   <v name="OFIELD_K">      0.00000000      0.00000000      0.00000000</v>
   <i name="OFIELD_Q6_NEAR">      0.00000000</i>
   <i name="OFIELD_Q6_FAR">      0.00000000</i>
   <i name="OFIELD_A">      0.00000000</i>
  </separator>
  <separator name="optional k-points parameters" >
   <i type="int" name="KPOINTS_OPT_MODE">     1</i>
   <i type="logical" name="LKPOINTS_OPT"> F  </i>
  </separator>
 </parameters>
 <atominfo>
  <atoms>       4 </atoms>
  <types>       1 </types>
  <array name="atoms" >
   <dimension dim="1">ion</dimension>
   <field type="string">element</field>
   <field type="int">atomtype</field>
   <set>
    <rc><c>Al</c><c>   1</c></rc>
    <rc><c>Al</c><c>   1</c></rc>
    <rc><c>Al</c><c>   1</c></rc>
    <rc><c>Al</c><c>   1</c></rc>
   </set>
  </array>
  <array name="atomtypes" >
   <dimension dim="1">type</dimension>
   <field type="int">atomspertype</field>
   <field type="string">element</field>
   <field>mass</field>
   <field>valence</field>
   <field type="string">pseudopotential</field>
   <set>
    <rc><c>   4</c><c>Al</c><c>     26.98100000</c><c>      3.00000000</c><c>  PAW_PBE Al 04Jan2001                  </c></rc>
   </set>
  </array>
 </atominfo>
 <structure name="initialpos" >
  <crystal>
   <varray name="basis" >
    <v>       4.35080512       0.00000000       0.00000000 </v>
    <v>      -0.00000000       4.35080512       0.00000000 </v>
    <v>       0.00000000       0.00000000       4.35080512 </v>
   </varray>
   <i name="volume">     82.35858815 </i>
   <varray name="rec_basis" >
    <v>       0.22984252       0.00000000      -0.00000000 </v>
    <v>       0.00000000       0.22984252       0.00000000 </v>
    <v>      -0.00000000      -0.00000000       0.22984252 </v>
   </varray>
  </crystal>
  <varray name="positions" >
   <v>       0.00000000       0.00000000       0.00000000 </v>
   <v>       0.00000000       0.50000000       0.50000000 </v>
   <v>       0.50000000       0.00000000       0.50000000 </v>
   <v>       0.50000000       0.50000000       0.00000000 </v>
  </varray>
 </structure>
 <calculation>
  <scstep>
   <time name="dav">   10.10    5.07</time>
   <time name="total">   10.17    5.11</time>
   <energy>
    <i name="alphaZ">     -0.65252404 </i>
    <i name="ewald">   -273.13995103 </i>
    <i name="hartreedc">     -0.96938949 </i>
    <i name="XCdc">   -106.47815735 </i>
    <i name="pawpsdc">    264.80062850 </i>
    <i name="pawaedc">   -136.98248303 </i>
    <i name="eentropy">     -0.00273428 </i>
    <i name="bandstr">     36.79437860 </i>
    <i name="atom">    214.15261729 </i>
    <i name="e_fr_energy">     -2.47761482 </i>
    <i name="e_wo_entrp">     -2.47488054 </i>
    <i name="e_0_energy">     -2.47670339 </i>
   </energy>
  </scstep>
  <scstep>
   <time name="dav">   15.41    7.71</time>
   <time name="total">   15.41    7.71</time>
   <energy>
    <i name="e_fr_energy">    -14.33250032 </i>
    <i name="e_wo_entrp">    -14.33086818 </i>
    <i name="e_0_energy">    -14.33195628 </i>
   </energy>
  </scstep>
  <scstep>
   <time name="dav">   14.28    7.14</time>
   <time name="total">   14.28    7.15</time>
   <energy>
    <i name="e_fr_energy">    -14.41567187 </i>
    <i name="e_wo_entrp">    -14.41435427 </i>
    <i name="e_0_energy">    -14.41523267 </i>
   </energy>
  </scstep>
  <scstep>
   <time name="dav">   17.68    8.85</time>
   <time name="total">   17.68    8.85</time>
   <energy>
    <i name="e_fr_energy">    -14.41590207 </i>
    <i name="e_wo_entrp">    -14.41458669 </i>
    <i name="e_0_energy">    -14.41546361 </i>
   </energy>
  </scstep>
  <scstep>
   <time name="dav">   14.11    7.06</time>
   <time name="total">   14.49    7.26</time>
   <energy>
    <i name="e_fr_energy">    -14.41590218 </i>
    <i name="e_wo_entrp">    -14.41458680 </i>
    <i name="e_0_energy">    -14.41546372 </i>
   </energy>
  </scstep>
  <scstep>
   <time name="diag">    1.77    0.89</time>
   <time name="diis">    3.20    1.68</time>
   <time name="orth">    0.13    0.07</time>
   <time name="total">    5.53    2.85</time>
   <energy>
    <i name="e_fr_energy">    -14.36937305 </i>
    <i name="e_wo_entrp">    -14.36801842 </i>
    <i name="e_0_energy">    -14.36892151 </i>
   </energy>
  </scstep>
  <scstep>
   <time name="diag">    1.77    0.89</time>
   <time name="diis">    3.24    1.71</time>
   <time name="orth">    0.13    0.07</time>
   <time name="total">    5.57    2.87</time>
   <energy>
    <i name="e_fr_energy">    -14.33629069 </i>
    <i name="e_wo_entrp">    -14.33488114 </i>
    <i name="e_0_energy">    -14.33582084 </i>
   </energy>
  </scstep>
  <scstep>
   <time name="diag">    1.77    0.88</time>
   <time name="diis">    3.27    1.75</time>
   <time name="orth">    0.13    0.07</time>
   <time name="total">    5.59    2.90</time>
   <energy>
    <i name="e_fr_energy">    -14.33627153 </i>
    <i name="e_wo_entrp">    -14.33486286 </i>
    <i name="e_0_energy">    -14.33580197 </i>
   </energy>
  </scstep>
  <scstep>
   <time name="diag">    1.81    0.91</time>
   <time name="diis">    3.23    1.70</time>
   <time name="orth">    0.13    0.07</time>
   <time name="total">    5.60    2.88</time>
   <energy>
    <i name="e_fr_energy">    -14.33627682 </i>
    <i name="e_wo_entrp">    -14.33486755 </i>
    <i name="e_0_energy">    -14.33580706 </i>
   </energy>
  </scstep>
  <scstep>
   <time name="diag">    1.79    0.90</time>
   <time name="diis">    3.24    1.70</time>
   <time name="orth">    0.13    0.07</time>
   <time name="total">    5.57    2.87</time>
   <energy>
    <i name="e_fr_energy">    -14.33627953 </i>
    <i name="e_wo_entrp">    -14.33487042 </i>
    <i name="e_0_energy">    -14.33580983 </i>
   </energy>
  </scstep>
  <scstep>
   <time name="diag">    2.15    1.08</time>
   <time name="diis">    3.25    1.71</time>
   <time name="orth">    0.13    0.07</time>
   <time name="total">    5.95    3.06</time>
   <energy>
    <i name="e_fr_energy">    -14.33627374 </i>
    <i name="e_wo_entrp">    -14.33486441 </i>
    <i name="e_0_energy">    -14.33580396 </i>
   </energy>
  </scstep>
  <scstep>
   <time name="diag">    1.75    0.88</time>
   <time name="diis">    2.57    1.64</time>
   <time name="orth">    0.13    0.07</time>
   <time name="total">    4.51    2.61</time>
   <energy>
    <i name="alphaZ">     -0.65252404 </i>
    <i name="ewald">   -273.13995103 </i>
    <i name="hartreedc">     -0.49777583 </i>
    <i name="XCdc">   -106.23712909 </i>
    <i name="pawpsdc">    400.56088589 </i>
    <i name="pawaedc">   -272.69285022 </i>
    <i name="eentropy">     -0.00140930 </i>
    <i name="bandstr">     24.17186183 </i>
    <i name="atom">    214.15261729 </i>
    <i name="e_fr_energy">    -14.33627450 </i>
    <i name="e_wo_entrp">    -14.33486520 </i>
    <i name="e_0_energy">    -14.33580473 </i>
   </energy>
  </scstep>
  <structure>
   <crystal>
    <varray name="basis" >
     <v>       4.35080512       0.00000000       0.00000000 </v>
     <v>      -0.00000000       4.35080512       0.00000000 </v>
     <v>       0.00000000       0.00000000       4.35080512 </v>
    </varray>
    <i name="volume">     82.35858815 </i>
    <varray name="rec_basis" >
     <v>       0.22984252       0.00000000      -0.00000000 </v>
     <v>       0.00000000       0.22984252       0.00000000 </v>
     <v>      -0.00000000      -0.00000000       0.22984252 </v>
    </varray>
   </crystal>
   <varray name="positions" >
    <v>       0.00000000       0.00000000       0.00000000 </v>
    <v>       0.00000000       0.50000000       0.50000000 </v>
    <v>       0.50000000       0.00000000       0.50000000 </v>
    <v>       0.50000000       0.50000000       0.00000000 </v>
   </varray>
  </structure>
  <varray name="forces" >
   <v>       0.00000000      -0.00000000       0.00000000 </v>
   <v>      -0.00000000       0.00000000      -0.00000000 </v>
   <v>      -0.00000000      -0.00000000      -0.00000000 </v>
   <v>       0.00000000       0.00000000      -0.00000000 </v>
  </varray>
  <varray name="stress" >
   <v>    -100.96300626       0.00000000      -0.00000000 </v>
   <v>       0.00000000    -100.96300626      -0.00000000 </v>
   <v>      -0.00000000       0.00000000    -100.96300626 </v>
  </varray>
  <energy>
   <i name="e_fr_energy">    -14.33627450 </i>
   <i name="e_wo_entrp">    -14.33486520 </i>
   <i name="e_0_energy">    -14.33580473 </i>
  </energy>
  <time name="totalsc">  119.04   60.60</time>
  <eigenvalues>
   <array>
    <dimension dim="1">band</dimension>
    <dimension dim="2">kpoint</dimension>
    <dimension dim="3">spin</dimension>
    <field>eigene</field>
    <field>occ</field>
    <set>
     <set comment="spin 1">
      <set comment="kpoint 1">
       <r>   -3.8187    1.0000 </r>
       <r>    3.4823    1.0000 </r>
       <r>    3.4823    1.0000 </r>
       <r>    3.4823    1.0000 </r>
       <r>    4.2241    1.0000 </r>
       <r>    4.2241    1.0000 </r>
       <r>    4.2241    1.0000 </r>
       <r>   10.5393   -0.0000 </r>
       <r>   10.5393   -0.0000 </r>
       <r>   10.5393   -0.0000 </r>
       <r>   10.5393   -0.0000 </r>
       <r>   10.5393   -0.0000 </r>
       <r>   10.5393   -0.0000 </r>
       <r>   11.0691   -0.0000 </r>
      </set>
      <set comment="kpoint 2">
       <r>   -3.7971    1.0000 </r>
       <r>    2.9991    1.0000 </r>
       <r>    3.5025    1.0000 </r>
       <r>    3.5025    1.0000 </r>
       <r>    4.2451    1.0000 </r>
       <r>    4.2451    1.0000 </r>
       <r>    4.7453    1.0000 </r>
       <r>   10.0103   -0.0000 </r>
       <r>   10.0103   -0.0000 </r>
       <r>   10.3523   -0.0000 </r>
       <r>   10.3523   -0.0000 </r>
       <r>   10.5583   -0.0000 </r>
       <r>   10.5583   -0.0000 </r>
       <r>   11.0907   -0.0000 </r>
      </set>
      <set comment="kpoint 3">
       <r>   -3.7322    1.0000 </r>
       <r>    2.3060    1.0000 </r>
       <r>    3.5632    1.0000 </r>
       <r>    3.5632    1.0000 </r>
       <r>    4.3082    1.0000 </r>
       <r>    4.3082    1.0000 </r>
       <r>    5.5524    1.0278 </r>
       <r>    9.3224   -0.0000 </r>
       <r>    9.3224   -0.0000 </r>
       <r>    9.9123   -0.0000 </r>
       <r>    9.9123   -0.0000 </r>
       <r>   10.6154   -0.0000 </r>
       <r>   10.6154   -0.0000 </r>
       <r>   11.1546   -0.0000 </r>
      </set>
      <set comment="kpoint 4">
       <r>   -3.6240    1.0000 </r>
       <r>    1.6266    1.0000 </r>
       <r>    3.6644    1.0000 </r>
       <r>    3.6644    1.0000 </r>
       <r>    4.4132    1.0000 </r>
       <r>    4.4132    1.0000 </r>
       <r>    6.4216   -0.0002 </r>
       <r>    8.6607   -0.0000 </r>
       <r>    8.6607   -0.0000 </r>
       <r>    9.3769   -0.0000 </r>
       <r>    9.3769   -0.0000 </r>
       <r>   10.7105   -0.0000 </r>
       <r>   10.7105   -0.0000 </r>
       <r>   11.2610   -0.0000 </r>
      </set>
      <set comment="kpoint 5">
       <r>   -3.4728    1.0000 </r>
       <r>    0.9798    1.0000 </r>
       <r>    3.8060    1.0000 </r>
       <r>    3.8060    1.0000 </r>
       <r>    4.5595    1.0000 </r>
       <r>    4.5595    1.0000 </r>
       <r>    7.3330   -0.0000 </r>
       <r>    8.0357   -0.0000 </r>
       <r>    8.0357   -0.0000 </r>
       <r>    8.8205   -0.0000 </r>
       <r>    8.8205   -0.0000 </r>
       <r>   10.8437   -0.0000 </r>
       <r>   10.8437   -0.0000 </r>
       <r>   11.4099    0.0000 </r>
      </set>
      <set comment="kpoint 6">
       <r>   -3.2785    1.0000 </r>
       <r>    0.3704    1.0000 </r>
       <r>    3.9881    1.0000 </r>
       <r>    3.9881    1.0000 </r>
       <r>    4.7466    1.0000 </r>
       <r>    4.7466    1.0000 </r>
       <r>    7.4495   -0.0000 </r>
       <r>    7.4495   -0.0000 </r>
       <r>    8.2737   -0.0000 </r>
       <r>    8.2737   -0.0000 </r>
       <r>    8.2811   -0.0000 </r>
       <r>   11.0149   -0.0000 </r>
       <r>   11.0149   -0.0000 </r>
       <r>   11.6013    0.0000 </r>
      </set>
      <set comment="kpoint 7">
       <r>   -3.0413    1.0000 </r>
       <r>   -0.1999    1.0000 </r>
       <r>    4.2107    1.0000 </r>
       <r>    4.2107    1.0000 </r>
       <r>    4.9732    1.0000 </r>
       <r>    4.9732    1.0000 </r>
       <r>    6.9033   -0.0000 </r>
       <r>    6.9033   -0.0000 </r>
       <r>    7.7512   -0.0000 </r>
       <r>    7.7512   -0.0000 </r>
       <r>    9.2622   -0.0000 </r>
       <r>   11.2241   -0.0000 </r>
       <r>   11.2241   -0.0000 </r>
       <r>   11.8346    0.0000 </r>
      </set>
      <set comment="kpoint 8">
       <r>   -2.7614    1.0000 </r>
       <r>   -0.7301    1.0000 </r>
       <r>    4.4738    1.0000 </r>
       <r>    4.4738    1.0000 </r>
       <r>    5.2366    1.0001 </r>
       <r>    5.2366    1.0001 </r>
       <r>    6.3972   -0.0004 </r>
       <r>    6.3972   -0.0004 </r>
       <r>    7.2622   -0.0000 </r>
       <r>    7.2622   -0.0000 </r>
       <r>   10.2724   -0.0000 </r>
       <r>   11.4713    0.0000 </r>
       <r>   11.4713    0.0000 </r>
       <r>   12.1097    0.0000 </r>
      </set>
      <set comment="kpoint 9">
       <r>   -2.4390    1.0000 </r>
       <r>   -1.2196    1.0000 </r>
       <r>    4.7775    1.0000 </r>
       <r>    4.7775    1.0000 </r>
       <r>    5.5284    1.0223 </r>
       <r>    5.5284    1.0223 </r>
       <r>    5.9315    0.1904 </r>
       <r>    5.9315    0.1904 </r>
       <r>    6.8184   -0.0000 </r>
       <r>    6.8184   -0.0000 </r>
       <r>   11.3049   -0.0000 </r>
       <r>   11.7564    0.0000 </r>
       <r>   11.7564    0.0000 </r>
       <r>   12.4268    0.0000 </r>
      </set>
      <set comment="kpoint 10">
       <r>   -2.0744    1.0000 </r>
       <r>   -1.6678    1.0000 </r>
       <r>    5.1216    1.0000 </r>
       <r>    5.1216    1.0000 </r>
       <r>    5.5063    1.0174 </r>
       <r>    5.5063    1.0174 </r>
       <r>    5.8050    0.6921 </r>
       <r>    5.8050    0.6921 </r>
       <r>    6.4655   -0.0001 </r>
       <r>    6.4655   -0.0001 </r>
       <r>   12.0794    0.0000 </r>
       <r>   12.0809    0.0000 </r>
       <r>   12.3502    0.0000 </r>
       <r>   12.4403    0.0000 </r>
      </set>
      <set comment="kpoint 11">
       <r>   -3.7754    1.0000 </r>
       <r>    3.0196    1.0000 </r>
       <r>    3.0196    1.0000 </r>
       <r>    3.5227    1.0000 </r>
       <r>    4.2662    1.0000 </r>
       <r>    4.7661    1.0000 </r>
       <r>    4.7661    1.0000 </r>
       <r>    9.5160   -0.0000 </r>
       <r>   10.0301   -0.0000 </r>
       <r>   10.0301   -0.0000 </r>
       <r>   10.3715   -0.0000 </r>
       <r>   10.3715   -0.0000 </r>
       <r>   10.5773   -0.0000 </r>
       <r>   11.6593    0.0000 </r>
      </set>
      <set comment="kpoint 12">
       <r>   -3.7105    1.0000 </r>
       <r>    2.3268    1.0000 </r>
       <r>    3.0813    1.0000 </r>
       <r>    3.5834    1.0000 </r>
       <r>    4.3292    1.0000 </r>
       <r>    4.8281    1.0000 </r>
       <r>    5.5729    1.0320 </r>
       <r>    8.8587   -0.0000 </r>
       <r>    9.3424   -0.0000 </r>
       <r>    9.9319   -0.0000 </r>
       <r>   10.0896   -0.0000 </r>
       <r>   10.3354   -0.0000 </r>
       <r>   10.4292   -0.0000 </r>
       <r>   11.7205    0.0000 </r>
      </set>
      <set comment="kpoint 13">
       <r>   -3.6024    1.0000 </r>
       <r>    1.6475    1.0000 </r>
       <r>    3.1841    1.0000 </r>
       <r>    3.6846    1.0000 </r>
       <r>    4.4339    1.0000 </r>
       <r>    4.9313    1.0000 </r>
       <r>    6.4418   -0.0001 </r>
       <r>    8.2124   -0.0000 </r>
       <r>    8.6808   -0.0000 </r>
       <r>    9.3969   -0.0000 </r>
       <r>    9.8356   -0.0000 </r>
       <r>   10.1887   -0.0000 </r>
       <r>   10.5253   -0.0000 </r>
       <r>   11.8231    0.0000 </r>
      </set>
      <set comment="kpoint 14">
       <r>   -3.4512    1.0000 </r>
       <r>    1.0008    1.0000 </r>
       <r>    3.3279    1.0000 </r>
       <r>    3.8262    1.0000 </r>
       <r>    4.5799    1.0000 </r>
       <r>    5.0753    1.0000 </r>
       <r>    7.3530   -0.0000 </r>
       <r>    7.5955   -0.0000 </r>
       <r>    8.0558   -0.0000 </r>
       <r>    8.8408   -0.0000 </r>
       <r>    9.2864   -0.0000 </r>
       <r>   10.3272   -0.0000 </r>
       <r>   10.6599   -0.0000 </r>
       <r>   11.9665    0.0000 </r>
      </set>
      <set comment="kpoint 15">
       <r>   -3.2569    1.0000 </r>
       <r>    0.3915    1.0000 </r>
       <r>    3.5125    1.0000 </r>
       <r>    4.0083    1.0000 </r>
       <r>    4.7662    1.0000 </r>
       <r>    5.2595    1.0001 </r>
       <r>    7.0143   -0.0000 </r>
       <r>    7.4697   -0.0000 </r>
       <r>    8.2945   -0.0000 </r>
       <r>    8.3005   -0.0000 </r>
       <r>    8.7414   -0.0000 </r>
       <r>   10.5053   -0.0000 </r>
       <r>   10.8331   -0.0000 </r>
       <r>   12.1508    0.0000 </r>
      </set>
      <set comment="kpoint 16">
       <r>   -3.0198    1.0000 </r>
       <r>   -0.1787    1.0000 </r>
       <r>    3.7379    1.0000 </r>
       <r>    4.2309    1.0000 </r>
       <r>    4.9907    1.0000 </r>
       <r>    5.4824    1.0127 </r>
       <r>    6.4727   -0.0001 </r>
       <r>    6.9235   -0.0000 </r>
       <r>    7.7730   -0.0000 </r>
       <r>    8.2192   -0.0000 </r>
       <r>    9.2805   -0.0000 </r>
       <r>   10.7226   -0.0000 </r>
       <r>   11.0454   -0.0000 </r>
       <r>   12.3759    0.0000 </r>
      </set>
      <set comment="kpoint 17">
       <r>   -2.7399    1.0000 </r>
       <r>   -0.7089    1.0000 </r>
       <r>    4.0037    1.0000 </r>
       <r>    4.4941    1.0000 </r>
       <r>    5.2445    1.0001 </r>
       <r>    5.7405    0.8995 </r>
       <r>    5.9793    0.0638 </r>
       <r>    6.4174   -0.0002 </r>
       <r>    7.2865   -0.0000 </r>
       <r>    7.7285   -0.0000 </r>
       <r>   10.2873   -0.0000 </r>
       <r>   10.9791   -0.0000 </r>
       <r>   11.2985   -0.0000 </r>
       <r>   12.6426    0.0000 </r>
      </set>
      <set comment="kpoint 18">
       <r>   -2.4176    1.0000 </r>
       <r>   -1.1983    1.0000 </r>
       <r>    4.3095    1.0000 </r>
       <r>    4.7977    1.0000 </r>
       <r>    5.3826    1.0022 </r>
       <r>    5.6768    1.0068 </r>
       <r>    5.9517    0.1300 </r>
       <r>    6.0181    0.0023 </r>
       <r>    6.8548   -0.0000 </r>
       <r>    7.2762   -0.0000 </r>
       <r>   11.2745   -0.0000 </r>
       <r>   11.2937   -0.0000 </r>
       <r>   11.6134    0.0000 </r>
       <r>   12.3917    0.0000 </r>
      </set>
      <set comment="kpoint 19">
       <r>   -2.0530    1.0000 </r>
       <r>   -1.6465    1.0000 </r>
       <r>    4.6540    1.0000 </r>
       <r>    5.0324    1.0000 </r>
       <r>    5.1419    1.0000 </r>
       <r>    5.5266    1.0219 </r>
       <r>    5.9263    0.2077 </r>
       <r>    6.1717   -0.0231 </r>
       <r>    6.6244   -0.0000 </r>
       <r>    6.8758   -0.0000 </r>
       <r>   11.6086    0.0000 </r>
       <r>   11.8754    0.0000 </r>
       <r>   11.9813    0.0000 </r>
       <r>   12.2513    0.0000 </r>
      </set>
      <set comment="kpoint 20">
       <r>   -3.6457    1.0000 </r>
       <r>    2.3890    1.0000 </r>
       <r>    2.3890    1.0000 </r>
       <r>    3.6441    1.0000 </r>
       <r>    4.3919    1.0000 </r>
       <r>    5.6342    1.0320 </r>
       <r>    5.6342    1.0320 </r>
       <r>    8.2023   -0.0000 </r>
       <r>    9.4025   -0.0000 </r>
       <r>    9.4025   -0.0000 </r>
       <r>    9.9907   -0.0000 </r>
       <r>    9.9907   -0.0000 </r>
       <r>   10.6913   -0.0000 </r>
       <r>   12.1385    0.0000 </r>
      </set>
      <set comment="kpoint 21">
       <r>   -3.5376    1.0000 </r>
       <r>    1.7101    1.0000 </r>
       <r>    2.4927    1.0000 </r>
       <r>    3.7453    1.0000 </r>
       <r>    4.4960    1.0000 </r>
       <r>    5.7361    0.9101 </r>
       <r>    6.5024   -0.0000 </r>
       <r>    7.5555   -0.0000 </r>
       <r>    8.7411   -0.0000 </r>
       <r>    9.4568   -0.0000 </r>
       <r>    9.5026   -0.0000 </r>
       <r>   10.0887   -0.0000 </r>
       <r>   10.4839   -0.0000 </r>
       <r>   12.5965    0.0000 </r>
      </set>
      <set comment="kpoint 22">
       <r>   -3.3864    1.0000 </r>
       <r>    1.0637    1.0000 </r>
       <r>    2.6378    1.0000 </r>
       <r>    3.8869    1.0000 </r>
       <r>    4.6407    1.0000 </r>
       <r>    5.8781    0.3896 </r>
       <r>    6.9387   -0.0000 </r>
       <r>    7.4124   -0.0000 </r>
       <r>    8.1162   -0.0000 </r>
       <r>    8.9020   -0.0000 </r>
       <r>    9.6427   -0.0000 </r>
       <r>   10.0107   -0.0000 </r>
       <r>   10.2262   -0.0000 </r>
       <r>   12.7704    0.0000 </r>
      </set>
      <set comment="kpoint 23">
       <r>   -3.1922    1.0000 </r>
       <r>    0.4547    1.0000 </r>
       <r>    2.8241    1.0000 </r>
       <r>    4.0690    1.0000 </r>
       <r>    4.8236    1.0000 </r>
       <r>    6.0592   -0.0286 </r>
       <r>    6.3594   -0.0010 </r>
       <r>    7.5303   -0.0000 </r>
       <r>    8.3575   -0.0000 </r>
       <r>    8.3581   -0.0000 </r>
       <r>    9.4917   -0.0000 </r>
       <r>    9.8227   -0.0000 </r>
       <r>   10.4036   -0.0000 </r>
       <r>   12.9537    0.0000 </r>
      </set>
      <set comment="kpoint 24">
       <r>   -2.9552    1.0000 </r>
       <r>   -0.1153    1.0000 </r>
       <r>    3.0514    1.0000 </r>
       <r>    4.2916    1.0000 </r>
       <r>    5.0351    1.0000 </r>
       <r>    5.8295    0.5936 </r>
       <r>    6.2765   -0.0053 </r>
       <r>    6.9841   -0.0000 </r>
       <r>    7.8398   -0.0000 </r>
       <r>    8.9810   -0.0000 </r>
       <r>    9.3336   -0.0000 </r>
       <r>   10.0425   -0.0000 </r>
       <r>   10.6237   -0.0000 </r>
       <r>   12.6787    0.0000 </r>
      </set>
      <set comment="kpoint 25">
       <r>   -2.6754    1.0000 </r>
       <r>   -0.6452    1.0000 </r>
       <r>    3.3195    1.0000 </r>
       <r>    4.5548    1.0000 </r>
       <r>    5.1414    1.0000 </r>
       <r>    5.4832    1.0128 </r>
       <r>    6.4781   -0.0000 </r>
       <r>    6.5179   -0.0000 </r>
       <r>    7.3678   -0.0000 </r>
       <r>    8.4960   -0.0000 </r>
       <r>   10.3019   -0.0000 </r>
       <r>   10.3195   -0.0000 </r>
       <r>   10.9018   -0.0000 </r>
       <r>   12.1869    0.0000 </r>
      </set>
      <set comment="kpoint 26">
       <r>   -2.3532    1.0000 </r>
       <r>   -1.1344    1.0000 </r>
       <r>    3.6279    1.0000 </r>
       <r>    4.7783    1.0000 </r>
       <r>    4.8584    1.0000 </r>
       <r>    5.6842    0.9991 </r>
       <r>    6.0124    0.0091 </r>
       <r>    6.6603   -0.0000 </r>
       <r>    7.0684   -0.0000 </r>
       <r>    8.0442   -0.0000 </r>
       <r>   10.6009   -0.0000 </r>
       <r>   11.0677   -0.0000 </r>
       <r>   11.4810    0.0000 </r>
       <r>   11.7326    0.0000 </r>
      </set>
      <set comment="kpoint 27">
       <r>   -1.9888    1.0000 </r>
       <r>   -1.5824    1.0000 </r>
       <r>    3.9760    1.0000 </r>
       <r>    4.3619    1.0000 </r>
       <r>    5.2026    1.0000 </r>
       <r>    5.5872    1.0342 </r>
       <r>    6.0137    0.0075 </r>
       <r>    6.3769   -0.0006 </r>
       <r>    7.2709   -0.0000 </r>
       <r>    7.6317   -0.0000 </r>
       <r>   10.9392   -0.0000 </r>
       <r>   11.3165    0.0000 </r>
       <r>   11.4439    0.0000 </r>
       <r>   11.8166    0.0000 </r>
      </set>
      <set comment="kpoint 28">
       <r>   -3.4296    1.0000 </r>
       <r>    1.8144    1.0000 </r>
       <r>    1.8144    1.0000 </r>
       <r>    3.8464    1.0000 </r>
       <r>    4.5986    1.0000 </r>
       <r>    6.6028   -0.0000 </r>
       <r>    6.6028   -0.0000 </r>
       <r>    6.9072   -0.0000 </r>
       <r>    8.8416   -0.0000 </r>
       <r>    8.8416   -0.0000 </r>
       <r>    9.5568   -0.0000 </r>
       <r>    9.5568   -0.0000 </r>
       <r>   10.8812   -0.0000 </r>
       <r>   12.4366    0.0000 </r>
      </set>
      <set comment="kpoint 29">
       <r>   -3.2785    1.0000 </r>
       <r>    1.1686    1.0000 </r>
       <r>    1.9603    1.0000 </r>
       <r>    3.9881    1.0000 </r>
       <r>    4.7396    1.0000 </r>
       <r>    6.2912   -0.0040 </r>
       <r>    6.7423   -0.0000 </r>
       <r>    7.5107   -0.0000 </r>
       <r>    8.2169   -0.0000 </r>
       <r>    8.9823   -0.0000 </r>
       <r>    9.0045   -0.0000 </r>
       <r>    9.6976   -0.0000 </r>
       <r>   10.7142   -0.0000 </r>
       <r>   12.9047    0.0000 </r>
      </set>
      <set comment="kpoint 30">
       <r>   -3.0845    1.0000 </r>
       <r>    0.5599    1.0000 </r>
       <r>    2.1477    1.0000 </r>
       <r>    4.1702    1.0000 </r>
       <r>    4.9087    1.0000 </r>
       <r>    5.7233    0.9382 </r>
       <r>    6.9183   -0.0000 </r>
       <r>    7.6311   -0.0000 </r>
       <r>    8.4517   -0.0000 </r>
       <r>    8.4646   -0.0000 </r>
       <r>    9.1631   -0.0000 </r>
       <r>    9.8816   -0.0000 </r>
       <r>   10.2797   -0.0000 </r>
       <r>   12.5694    0.0000 </r>
      </set>
      <set comment="kpoint 31">
       <r>   -2.8476    1.0000 </r>
       <r>   -0.0097    1.0000 </r>
       <r>    2.3764    1.0000 </r>
       <r>    4.3928    1.0000 </r>
       <r>    4.9755    1.0000 </r>
       <r>    5.3358    1.0008 </r>
       <r>    7.0850   -0.0000 </r>
       <r>    7.1198   -0.0000 </r>
       <r>    7.9615   -0.0000 </r>
       <r>    9.3839   -0.0000 </r>
       <r>    9.4094   -0.0000 </r>
       <r>    9.7992   -0.0000 </r>
       <r>   10.1217   -0.0000 </r>
       <r>   12.0368    0.0000 </r>
      </set>
      <set comment="kpoint 32">
       <r>   -2.5681    1.0000 </r>
       <r>   -0.5392    1.0000 </r>
       <r>    2.6462    1.0000 </r>
       <r>    4.5816    1.0000 </r>
       <r>    4.6559    1.0000 </r>
       <r>    5.4879    1.0137 </r>
       <r>    6.5792   -0.0000 </r>
       <r>    7.2302   -0.0000 </r>
       <r>    7.6188   -0.0000 </r>
       <r>    9.3281   -0.0000 </r>
       <r>    9.6447   -0.0000 </r>
       <r>   10.2065   -0.0000 </r>
       <r>   10.5915   -0.0000 </r>
       <r>   11.5412    0.0000 </r>
      </set>
      <set comment="kpoint 33">
       <r>   -2.2461    1.0000 </r>
       <r>   -1.0281    1.0000 </r>
       <r>    2.9568    1.0000 </r>
       <r>    4.1252    1.0000 </r>
       <r>    4.9596    1.0000 </r>
       <r>    5.7813    0.7786 </r>
       <r>    6.1136   -0.0345 </r>
       <r>    6.9088   -0.0000 </r>
       <r>    7.7805   -0.0000 </r>
       <r>    8.8833   -0.0000 </r>
       <r>    9.9452   -0.0000 </r>
       <r>   10.5837   -0.0000 </r>
       <r>   11.0838   -0.0000 </r>
       <r>   11.5461    0.0000 </r>
      </set>
      <set comment="kpoint 34">
       <r>   -1.8819    1.0000 </r>
       <r>   -1.4758    1.0000 </r>
       <r>    3.3076    1.0000 </r>
       <r>    3.6978    1.0000 </r>
       <r>    5.3037    1.0004 </r>
       <r>    5.6884    0.9943 </r>
       <r>    6.1236   -0.0331 </r>
       <r>    6.5038   -0.0000 </r>
       <r>    8.1008   -0.0000 </r>
       <r>    8.4724   -0.0000 </r>
       <r>   10.2854   -0.0000 </r>
       <r>   10.6650   -0.0000 </r>
       <r>   10.9272   -0.0000 </r>
       <r>   11.2981   -0.0000 </r>
      </set>
      <set comment="kpoint 35">
       <r>   -3.1276    1.0000 </r>
       <r>    1.3152    1.0000 </r>
       <r>    1.3152    1.0000 </r>
       <r>    4.1297    1.0000 </r>
       <r>    4.8665    1.0000 </r>
       <r>    5.6865    0.9964 </r>
       <r>    7.6454   -0.0000 </r>
       <r>    7.6454   -0.0000 </r>
       <r>    8.3580   -0.0000 </r>
       <r>    8.3580   -0.0000 </r>
       <r>    9.1506   -0.0000 </r>
       <r>    9.1506   -0.0000 </r>
       <r>   11.1468   -0.0000 </r>
       <r>   12.5358    0.0000 </r>
      </set>
      <set comment="kpoint 36">
       <r>   -2.9337    1.0000 </r>
       <r>    0.7072    1.0000 </r>
       <r>    1.5035    1.0000 </r>
       <r>    4.3118    1.0000 </r>
       <r>    4.8919    1.0000 </r>
       <r>    5.2596    1.0001 </r>
       <r>    7.7724   -0.0000 </r>
       <r>    7.8058   -0.0000 </r>
       <r>    8.5392   -0.0000 </r>
       <r>    8.5702   -0.0000 </r>
       <r>    8.6261   -0.0000 </r>
       <r>    9.3517   -0.0000 </r>
       <r>   11.0223   -0.0000 </r>
       <r>   11.9599    0.0000 </r>
      </set>
      <set comment="kpoint 37">
       <r>   -2.6971    1.0000 </r>
       <r>    0.1382    1.0000 </r>
       <r>    1.7334    1.0000 </r>
       <r>    4.4610    1.0000 </r>
       <r>    4.5344    1.0000 </r>
       <r>    5.3674    1.0016 </r>
       <r>    7.2264   -0.0000 </r>
       <r>    7.8754   -0.0000 </r>
       <r>    8.2540   -0.0000 </r>
       <r>    8.7606   -0.0000 </r>
       <r>    9.3723   -0.0000 </r>
       <r>    9.7485   -0.0000 </r>
       <r>   10.6305   -0.0000 </r>
       <r>   11.4241    0.0000 </r>
      </set>
      <set comment="kpoint 38">
       <r>   -2.4178    1.0000 </r>
       <r>   -0.3909    1.0000 </r>
       <r>    2.0046    1.0000 </r>
       <r>    3.9640    1.0000 </r>
       <r>    4.7976    1.0000 </r>
       <r>    5.6204    1.0347 </r>
       <r>    6.7206   -0.0000 </r>
       <r>    7.5161   -0.0000 </r>
       <r>    8.3793   -0.0000 </r>
       <r>    9.0222   -0.0000 </r>
       <r>    9.7390   -0.0000 </r>
       <r>   10.1914   -0.0000 </r>
       <r>   10.6502   -0.0000 </r>
       <r>   10.9260   -0.0000 </r>
      </set>
      <set comment="kpoint 39">
       <r>   -2.0961    1.0000 </r>
       <r>   -0.8793    1.0000 </r>
       <r>    2.3168    1.0000 </r>
       <r>    3.4950    1.0000 </r>
       <r>    5.1012    1.0000 </r>
       <r>    5.9246    0.2132 </r>
       <r>    6.2551   -0.0076 </r>
       <r>    7.0744   -0.0000 </r>
       <r>    8.6587   -0.0000 </r>
       <r>    9.3237   -0.0000 </r>
       <r>    9.7615   -0.0000 </r>
       <r>   10.0504   -0.0000 </r>
       <r>   10.4664   -0.0000 </r>
       <r>   11.1650   -0.0000 </r>
      </set>
      <set comment="kpoint 40">
       <r>   -1.7323    1.0000 </r>
       <r>   -1.3266    1.0000 </r>
       <r>    2.6698    1.0000 </r>
       <r>    3.0628    1.0000 </r>
       <r>    5.4453    1.0072 </r>
       <r>    5.8300    0.5915 </r>
       <r>    6.2709   -0.0058 </r>
       <r>    6.6555   -0.0000 </r>
       <r>    8.9887   -0.0000 </r>
       <r>    9.3581   -0.0000 </r>
       <r>    9.6650   -0.0000 </r>
       <r>   10.0460   -0.0000 </r>
       <r>   10.3881   -0.0000 </r>
       <r>   10.7594   -0.0000 </r>
      </set>
      <set comment="kpoint 41">
       <r>   -2.7401    1.0000 </r>
       <r>    0.8963    1.0000 </r>
       <r>    0.8963    1.0000 </r>
       <r>    4.4205    1.0000 </r>
       <r>    4.4940    1.0000 </r>
       <r>    5.3269    1.0007 </r>
       <r>    7.9540   -0.0000 </r>
       <r>    7.9540   -0.0000 </r>
       <r>    8.5915   -0.0000 </r>
       <r>    8.5915   -0.0000 </r>
       <r>    8.9662   -0.0000 </r>
       <r>    8.9662   -0.0000 </r>
       <r>   11.3848    0.0000 </r>
       <r>   11.4879    0.0000 </r>
      </set>
      <set comment="kpoint 42">
       <r>   -2.5037    1.0000 </r>
       <r>    0.3280    1.0000 </r>
       <r>    1.1272    1.0000 </r>
       <r>    3.8827    1.0000 </r>
       <r>    4.7166    1.0000 </r>
       <r>    5.5391    1.0248 </r>
       <r>    7.4082   -0.0000 </r>
       <r>    8.1757   -0.0000 </r>
       <r>    8.1942   -0.0000 </r>
       <r>    8.9379   -0.0000 </r>
       <r>    9.0600   -0.0000 </r>
       <r>    9.8187   -0.0000 </r>
       <r>   10.8466   -0.0000 </r>
       <r>   11.4072    0.0000 </r>
      </set>
      <set comment="kpoint 43">
       <r>   -2.2248    1.0000 </r>
       <r>   -0.2004    1.0000 </r>
       <r>    1.3996    1.0000 </r>
       <r>    3.3723    1.0000 </r>
       <r>    4.9797    1.0000 </r>
       <r>    5.8032    0.6991 </r>
       <r>    6.9025   -0.0000 </r>
       <r>    7.7197   -0.0000 </r>
       <r>    8.4378   -0.0000 </r>
       <r>    9.2149   -0.0000 </r>
       <r>    9.2985   -0.0000 </r>
       <r>   10.3467   -0.0000 </r>
       <r>   10.8100   -0.0000 </r>
       <r>   11.0599   -0.0000 </r>
      </set>
      <set comment="kpoint 44">
       <r>   -1.9035    1.0000 </r>
       <r>   -0.6882    1.0000 </r>
       <r>    1.7133    1.0000 </r>
       <r>    2.8984    1.0000 </r>
       <r>    5.2833    1.0002 </r>
       <r>    6.1103   -0.0348 </r>
       <r>    6.4371   -0.0001 </r>
       <r>    7.2656   -0.0000 </r>
       <r>    8.7399   -0.0000 </r>
       <r>    9.5180   -0.0000 </r>
       <r>    9.5869   -0.0000 </r>
       <r>    9.8856   -0.0000 </r>
       <r>   10.6359   -0.0000 </r>
       <r>   10.6636   -0.0000 </r>
      </set>
      <set comment="kpoint 45">
       <r>   -1.5401    1.0000 </r>
       <r>   -1.1349    1.0000 </r>
       <r>    2.0680    1.0000 </r>
       <r>    2.4632    1.0000 </r>
       <r>    5.6274    1.0336 </r>
       <r>    6.0120    0.0096 </r>
       <r>    6.4578   -0.0001 </r>
       <r>    6.8436   -0.0000 </r>
       <r>    9.0820   -0.0000 </r>
       <r>    9.4640   -0.0000 </r>
       <r>    9.8554   -0.0000 </r>
       <r>    9.9146   -0.0000 </r>
       <r>   10.2282   -0.0000 </r>
       <r>   10.2760   -0.0000 </r>
      </set>
      <set comment="kpoint 46">
       <r>   -2.2677    1.0000 </r>
       <r>    0.5598    1.0000 </r>
       <r>    0.5598    1.0000 </r>
       <r>    3.3313    1.0000 </r>
       <r>    4.9392    1.0000 </r>
       <r>    5.7624    0.8394 </r>
       <r>    7.6302   -0.0000 </r>
       <r>    7.6302   -0.0000 </r>
       <r>    8.4352   -0.0000 </r>
       <r>    8.4352   -0.0000 </r>
       <r>   10.0168   -0.0000 </r>
       <r>   10.0168   -0.0000 </r>
       <r>   10.3067   -0.0000 </r>
       <r>   11.0471   -0.0000 </r>
      </set>
      <set comment="kpoint 47">
       <r>   -1.9892    1.0000 </r>
       <r>    0.0322    1.0000 </r>
       <r>    0.8332    1.0000 </r>
       <r>    2.8158    1.0000 </r>
       <r>    5.2023    1.0000 </r>
       <r>    6.0293   -0.0092 </r>
       <r>    7.1248   -0.0000 </r>
       <r>    7.8926   -0.0000 </r>
       <r>    7.9494   -0.0000 </r>
       <r>    8.7022   -0.0000 </r>
       <r>    9.8054   -0.0000 </r>
       <r>   10.2638   -0.0000 </r>
       <r>   10.5717   -0.0000 </r>
       <r>   11.0161   -0.0000 </r>
      </set>
      <set comment="kpoint 48">
       <r>   -1.6684    1.0000 </r>
       <r>   -0.4549    1.0000 </r>
       <r>    1.1482    1.0000 </r>
       <r>    2.3388    1.0000 </r>
       <r>    5.5059    1.0173 </r>
       <r>    6.3372   -0.0016 </r>
       <r>    6.6595   -0.0000 </r>
       <r>    7.4930   -0.0000 </r>
       <r>    8.1952   -0.0000 </r>
       <r>    9.0042   -0.0000 </r>
       <r>    9.3432   -0.0000 </r>
       <r>   10.1277   -0.0000 </r>
       <r>   10.5495   -0.0000 </r>
       <r>   11.5661    0.0000 </r>
      </set>
      <set comment="kpoint 49">
       <r>   -1.3056    1.0000 </r>
       <r>   -0.9009    1.0000 </r>
       <r>    1.5044    1.0000 </r>
       <r>    1.9014    1.0000 </r>
       <r>    5.8500    0.5075 </r>
       <r>    6.2345   -0.0105 </r>
       <r>    6.6848   -0.0000 </r>
       <r>    7.0706   -0.0000 </r>
       <r>    8.5380   -0.0000 </r>
       <r>    8.9207   -0.0000 </r>
       <r>    9.3428   -0.0000 </r>
       <r>    9.7176   -0.0000 </r>
       <r>   10.8687   -0.0000 </r>
       <r>   11.2136   -0.0000 </r>
      </set>
      <set comment="kpoint 50">
       <r>   -1.7112    1.0000 </r>
       <r>    0.3066    1.0000 </r>
       <r>    0.3066    1.0000 </r>
       <r>    2.2972    1.0000 </r>
       <r>    5.4653    1.0099 </r>
       <r>    6.2968   -0.0036 </r>
       <r>    7.3874   -0.0000 </r>
       <r>    7.3874   -0.0000 </r>
       <r>    8.2148   -0.0000 </r>
       <r>    8.2148   -0.0000 </r>
       <r>    9.3030   -0.0000 </r>
       <r>   10.0936   -0.0000 </r>
       <r>   11.2602   -0.0000 </r>
       <r>   11.2602   -0.0000 </r>
      </set>
      <set comment="kpoint 51">
       <r>   -1.3910    1.0000 </r>
       <r>   -0.1796    1.0000 </r>
       <r>    0.6227    1.0000 </r>
       <r>    1.8180    1.0000 </r>
       <r>    5.7689    0.8195 </r>
       <r>    6.6046   -0.0000 </r>
       <r>    6.9223   -0.0000 </r>
       <r>    7.6903   -0.0000 </r>
       <r>    7.7586   -0.0000 </r>
       <r>    8.5175   -0.0000 </r>
       <r>    8.8399   -0.0000 </r>
       <r>    9.6471   -0.0000 </r>
       <r>   11.5372    0.0000 </r>
       <r>   12.2793    0.0000 </r>
      </set>
      <set comment="kpoint 52">
       <r>   -1.0287    1.0000 </r>
       <r>   -0.6248    1.0000 </r>
       <r>    0.9802    1.0000 </r>
       <r>    1.3788    1.0000 </r>
       <r>    6.1130   -0.0345 </r>
       <r>    6.4974   -0.0000 </r>
       <r>    6.9516   -0.0000 </r>
       <r>    7.3368   -0.0000 </r>
       <r>    8.0334   -0.0000 </r>
       <r>    8.4167   -0.0000 </r>
       <r>    8.8576   -0.0000 </r>
       <r>    9.2345   -0.0000 </r>
       <r>   11.8392    0.0000 </r>
       <r>   12.1475    0.0000 </r>
      </set>
      <set comment="kpoint 53">
       <r>   -1.0714    1.0000 </r>
       <r>    0.1375    1.0000 </r>
       <r>    0.1375    1.0000 </r>
       <r>    1.3368    1.0000 </r>
       <r>    6.0725   -0.0328 </r>
       <r>    6.9118   -0.0000 </r>
       <r>    7.2254   -0.0000 </r>
       <r>    7.2254   -0.0000 </r>
       <r>    8.0624   -0.0000 </r>
       <r>    8.0624   -0.0000 </r>
       <r>    8.3762   -0.0000 </r>
       <r>    9.1980   -0.0000 </r>
       <r>   12.5377    0.0000 </r>
       <r>   12.5381    0.0000 </r>
      </set>
      <set comment="kpoint 54">
       <r>   -0.7099    1.0000 </r>
       <r>   -0.3068    1.0000 </r>
       <r>    0.4962    1.0000 </r>
       <r>    0.8961    1.0000 </r>
       <r>    6.4164   -0.0002 </r>
       <r>    6.8008   -0.0000 </r>
       <r>    7.2579   -0.0000 </r>
       <r>    7.5689   -0.0000 </r>
       <r>    7.6419   -0.0000 </r>
       <r>    7.9525   -0.0000 </r>
       <r>    8.4042   -0.0000 </r>
       <r>    8.7832   -0.0000 </r>
       <r>   12.8017    0.0000 </r>
       <r>   13.0094    0.0000 </r>
      </set>
      <set comment="kpoint 55">
       <r>   -0.3492    1.0000 </r>
       <r>    0.0529    1.0000 </r>
       <r>    0.0529    1.0000 </r>
       <r>    0.4540    1.0000 </r>
       <r>    6.7602   -0.0000 </r>
       <r>    7.1444   -0.0000 </r>
       <r>    7.1444   -0.0000 </r>
       <r>    7.5284   -0.0000 </r>
       <r>    7.6028   -0.0000 </r>
       <r>    7.9853   -0.0000 </r>
       <r>    7.9853   -0.0000 </r>
       <r>    8.3662   -0.0000 </r>
       <r>   13.5946    0.0000 </r>
       <r>   13.6849    0.0000 </r>
      </set>
      <set comment="kpoint 56">
       <r>   -3.7538    1.0000 </r>
       <r>    3.0402    1.0000 </r>
       <r>    3.0402    1.0000 </r>
       <r>    3.0402    1.0000 </r>
       <r>    4.7867    1.0000 </r>
       <r>    4.7867    1.0000 </r>
       <r>    4.7867    1.0000 </r>
       <r>    9.5360   -0.0000 </r>
       <r>    9.5360   -0.0000 </r>
       <r>    9.5360   -0.0000 </r>
       <r>   10.5963   -0.0000 </r>
       <r>   10.5963   -0.0000 </r>
       <r>   10.5963   -0.0000 </r>
       <r>   11.7476    0.0000 </r>
      </set>
      <set comment="kpoint 57">
       <r>   -3.6889    1.0000 </r>
       <r>    2.3475    1.0000 </r>
       <r>    3.1019    1.0000 </r>
       <r>    3.1019    1.0000 </r>
       <r>    4.8487    1.0000 </r>
       <r>    4.8487    1.0000 </r>
       <r>    5.5933    1.0348 </r>
       <r>    8.8788   -0.0000 </r>
       <r>    8.8788   -0.0000 </r>
       <r>    9.5958   -0.0000 </r>
       <r>   10.3548   -0.0000 </r>
       <r>   10.3548   -0.0000 </r>
       <r>   10.6534   -0.0000 </r>
       <r>   11.8099    0.0000 </r>
      </set>
      <set comment="kpoint 58">
       <r>   -3.5808    1.0000 </r>
       <r>    1.6683    1.0000 </r>
       <r>    3.2046    1.0000 </r>
       <r>    3.2046    1.0000 </r>
       <r>    4.9517    1.0000 </r>
       <r>    4.9517    1.0000 </r>
       <r>    6.4620   -0.0001 </r>
       <r>    8.2327   -0.0000 </r>
       <r>    8.2327   -0.0000 </r>
       <r>    9.6956   -0.0000 </r>
       <r>    9.8554   -0.0000 </r>
       <r>    9.8554   -0.0000 </r>
       <r>   10.7486   -0.0000 </r>
       <r>   11.9136    0.0000 </r>
      </set>
      <set comment="kpoint 59">
       <r>   -3.4296    1.0000 </r>
       <r>    1.0218    1.0000 </r>
       <r>    3.3483    1.0000 </r>
       <r>    3.3483    1.0000 </r>
       <r>    5.0953    1.0000 </r>
       <r>    5.0953    1.0000 </r>
       <r>    7.3727   -0.0000 </r>
       <r>    7.6160   -0.0000 </r>
       <r>    7.6160   -0.0000 </r>
       <r>    9.3065   -0.0000 </r>
       <r>    9.3065   -0.0000 </r>
       <r>    9.8352   -0.0000 </r>
       <r>   10.8817   -0.0000 </r>
       <r>   12.0586    0.0000 </r>
      </set>
      <set comment="kpoint 60">
       <r>   -3.2353    1.0000 </r>
       <r>    0.4125    1.0000 </r>
       <r>    3.5329    1.0000 </r>
       <r>    3.5329    1.0000 </r>
       <r>    5.2785    1.0002 </r>
       <r>    5.2785    1.0002 </r>
       <r>    7.0353   -0.0000 </r>
       <r>    7.0353   -0.0000 </r>
       <r>    8.3195   -0.0000 </r>
       <r>    8.7618   -0.0000 </r>
       <r>    8.7618   -0.0000 </r>
       <r>   10.0151   -0.0000 </r>
       <r>   11.0529   -0.0000 </r>
       <r>   12.2449    0.0000 </r>
      </set>
      <set comment="kpoint 61">
       <r>   -2.9982    1.0000 </r>
       <r>   -0.1576    1.0000 </r>
       <r>    3.7581    1.0000 </r>
       <r>    3.7581    1.0000 </r>
       <r>    5.4980    1.0157 </r>
       <r>    5.4980    1.0157 </r>
       <r>    6.4956   -0.0000 </r>
       <r>    6.4956   -0.0000 </r>
       <r>    8.2400   -0.0000 </r>
       <r>    8.2400   -0.0000 </r>
       <r>    9.2972   -0.0000 </r>
       <r>   10.2367   -0.0000 </r>
       <r>   11.2621   -0.0000 </r>
       <r>   12.4728    0.0000 </r>
      </set>
      <set comment="kpoint 62">
       <r>   -2.7184    1.0000 </r>
       <r>   -0.6877    1.0000 </r>
       <r>    4.0236    1.0000 </r>
       <r>    4.0236    1.0000 </r>
       <r>    5.7223    0.9401 </r>
       <r>    5.7223    0.9401 </r>
       <r>    6.0285   -0.0085 </r>
       <r>    6.0285   -0.0085 </r>
       <r>    7.7504   -0.0000 </r>
       <r>    7.7504   -0.0000 </r>
       <r>   10.2792   -0.0000 </r>
       <r>   10.5227   -0.0000 </r>
       <r>   11.5093    0.0000 </r>
       <r>   12.3476    0.0000 </r>
      </set>
      <set comment="kpoint 63">
       <r>   -2.3961    1.0000 </r>
       <r>   -1.1770    1.0000 </r>
       <r>    4.3282    1.0000 </r>
       <r>    4.3282    1.0000 </r>
       <r>    5.4860    1.0133 </r>
       <r>    5.4860    1.0133 </r>
       <r>    6.0959   -0.0355 </r>
       <r>    6.0959   -0.0355 </r>
       <r>    7.3015   -0.0000 </r>
       <r>    7.3015   -0.0000 </r>
       <r>   10.7688   -0.0000 </r>
       <r>   11.3622    0.0000 </r>
       <r>   11.7944    0.0000 </r>
       <r>   11.8981    0.0000 </r>
      </set>
      <set comment="kpoint 64">
       <r>   -2.0316    1.0000 </r>
       <r>   -1.6251    1.0000 </r>
       <r>    4.6649    1.0000 </r>
       <r>    4.6649    1.0000 </r>
       <r>    5.0799    1.0000 </r>
       <r>    5.0799    1.0000 </r>
       <r>    6.3845   -0.0005 </r>
       <r>    6.3845   -0.0005 </r>
       <r>    6.9252   -0.0000 </r>
       <r>    6.9252   -0.0000 </r>
       <r>   11.1109   -0.0000 </r>
       <r>   11.4861    0.0000 </r>
       <r>   12.1174    0.0000 </r>
       <r>   12.4044    0.0000 </r>
      </set>
      <set comment="kpoint 65">
       <r>   -3.6240    1.0000 </r>
       <r>    2.4098    1.0000 </r>
       <r>    2.4098    1.0000 </r>
       <r>    3.1635    1.0000 </r>
       <r>    4.9104    1.0000 </r>
       <r>    5.6545    1.0236 </r>
       <r>    5.6545    1.0236 </r>
[...]
       <r>   -0.0345    1.0000 </r>
       <r>    1.1597    1.0000 </r>
       <r>    1.1597    1.0000 </r>
       <r>    1.9052    1.0000 </r>
       <r>    2.4366    1.0000 </r>
       <r>    3.1767    1.0000 </r>
       <r>    3.1767    1.0000 </r>
       <r>    4.3491    1.0000 </r>
       <r>   12.7080    0.0000 </r>
       <r>   13.3468    0.0000 </r>
       <r>   13.3468    0.0000 </r>
       <r>   13.6523    0.0000 </r>
       <r>   13.6523    0.0000 </r>
       <r>   13.8653    0.0000 </r>
      </set>
      <set comment="kpoint 215">
       <r>    0.3234    1.0000 </r>
       <r>    0.7219    1.0000 </r>
       <r>    1.5065    1.0000 </r>
       <r>    1.8628    1.0000 </r>
       <r>    2.3957    1.0000 </r>
       <r>    2.7501    1.0000 </r>
       <r>    3.5255    1.0000 </r>
       <r>    3.9168    1.0000 </r>
       <r>   13.0007    0.0000 </r>
       <r>   13.2768    0.0000 </r>
       <r>   13.7408    0.0000 </r>
       <r>   13.8697    0.0000 </r>
       <r>   13.9209    0.0000 </r>
       <r>   14.2498    0.0000 </r>
      </set>
      <set comment="kpoint 216">
       <r>    0.6797    1.0000 </r>
       <r>    1.0753    1.0000 </r>
       <r>    1.0753    1.0000 </r>
       <r>    1.4643    1.0000 </r>
       <r>    2.7089    1.0000 </r>
       <r>    3.0942    1.0000 </r>
       <r>    3.0942    1.0000 </r>
       <r>    3.4844    1.0000 </r>
       <r>   13.3049    0.0000 </r>
       <r>   13.6090    0.0000 </r>
       <r>   13.6091    0.0000 </r>
       <r>   13.9274    0.0000 </r>
       <r>   14.4781    0.0000 </r>
       <r>   14.5399    0.0000 </r>
      </set>
      <set comment="kpoint 217">
       <r>    0.2811    1.0000 </r>
       <r>    1.4643    1.0000 </r>
       <r>    1.4643    1.0000 </r>
       <r>    1.4643    1.0000 </r>
       <r>    2.7090    1.0000 </r>
       <r>    2.7090    1.0000 </r>
       <r>    2.7090    1.0000 </r>
       <r>    3.8758    1.0000 </r>
       <r>   13.6446    0.0000 </r>
       <r>   13.6446    0.0000 </r>
       <r>   13.6446    0.0000 </r>
       <r>   14.1360    0.0000 </r>
       <r>   14.1360    0.0000 </r>
       <r>   14.1361    0.0000 </r>
      </set>
      <set comment="kpoint 218">
       <r>    0.6374    1.0000 </r>
       <r>    1.0331    1.0000 </r>
       <r>    1.7776    1.0000 </r>
       <r>    1.7776    1.0000 </r>
       <r>    2.3140    1.0000 </r>
       <r>    2.3140    1.0000 </r>
       <r>    3.0530    1.0000 </r>
       <r>    3.4433    1.0000 </r>
       <r>   13.8779    0.0000 </r>
       <r>   13.8779    0.0000 </r>
       <r>   14.2127    0.0000 </r>
       <r>   14.2128    0.0000 </r>
       <r>   14.4496    0.0000 </r>
       <r>   14.5139    0.0000 </r>
      </set>
      <set comment="kpoint 219">
       <r>    0.9909    1.0000 </r>
       <r>    1.3798    1.0000 </r>
       <r>    1.3798    1.0000 </r>
       <r>    1.7350    1.0000 </r>
       <r>    2.2731    1.0000 </r>
       <r>    2.6265    1.0000 </r>
       <r>    2.6265    1.0000 </r>
       <r>    3.0118    1.0000 </r>
       <r>   14.1795    0.0000 </r>
       <r>   14.4047    0.0000 </r>
       <r>   14.4120    0.0000 </r>
       <r>   14.6883    0.0000 </r>
       <r>   14.7099    0.0000 </r>
       <r>   14.7566    0.0000 </r>
      </set>
      <set comment="kpoint 220">
       <r>    1.3375    1.0000 </r>
       <r>    1.6923    1.0000 </r>
       <r>    1.6923    1.0000 </r>
       <r>    1.6923    1.0000 </r>
       <r>    2.2323    1.0000 </r>
       <r>    2.2323    1.0000 </r>
       <r>    2.2323    1.0000 </r>
       <r>    2.5853    1.0000 </r>
       <r>   14.8994    0.0000 </r>
       <r>   14.9076    0.0000 </r>
       <r>   14.9178    0.0000 </r>
       <r>   14.9500    0.0000 </r>
       <r>   14.9740    0.0000 </r>
       <r>   14.9934    0.0000 </r>
      </set>
     </set>
    </set>
   </array>
  </eigenvalues>
  <separator name="orbital magnetization" >
   <v name="MAGDIPOLOUT">      0.00000000      0.00000000      0.00000000</v>
  </separator>
  <dos>
   <i name="efermi">      5.85176022 </i>
   <total>
    <array>
     <dimension dim="1">gridpoints</dimension>
     <dimension dim="2">spin</dimension>
     <field>energy</field>
     <field>total</field>
     <field>integrated</field>
     <set>
      <set comment="spin 1">
       <r>    -5.8187     0.0000     0.0000 </r>
       <r>    -5.7427     0.0000     0.0000 </r>
       <r>    -5.6666     0.0000     0.0000 </r>
       <r>    -5.5906     0.0000     0.0000 </r>
       <r>    -5.5145     0.0000     0.0000 </r>
       <r>    -5.4385    -0.0000    -0.0000 </r>
       <r>    -5.3625    -0.0000    -0.0000 </r>
       <r>    -5.2864    -0.0000    -0.0000 </r>
       <r>    -5.2104    -0.0000    -0.0000 </r>
       <r>    -5.1343    -0.0000    -0.0000 </r>
       <r>    -5.0583    -0.0000    -0.0000 </r>
       <r>    -4.9823    -0.0000    -0.0000 </r>
       <r>    -4.9062    -0.0000    -0.0000 </r>
       <r>    -4.8302    -0.0000    -0.0000 </r>
       <r>    -4.7541    -0.0000    -0.0000 </r>
       <r>    -4.6781    -0.0000    -0.0000 </r>
       <r>    -4.6021    -0.0000    -0.0000 </r>
       <r>    -4.5260    -0.0000    -0.0000 </r>
       <r>    -4.4500    -0.0000    -0.0000 </r>
       <r>    -4.3739    -0.0000    -0.0000 </r>
       <r>    -4.2979    -0.0001    -0.0000 </r>
       <r>    -4.2219    -0.0005    -0.0000 </r>
       <r>    -4.1458    -0.0018    -0.0002 </r>
       <r>    -4.0698    -0.0045    -0.0005 </r>
       <r>    -3.9937    -0.0069    -0.0011 </r>
       <r>    -3.9177    -0.0009    -0.0011 </r>
       <r>    -3.8417     0.0261     0.0009 </r>
       <r>    -3.7656     0.0804     0.0070 </r>
       <r>    -3.6896     0.1523     0.0186 </r>
       <r>    -3.6135     0.2234     0.0355 </r>
       <r>    -3.5375     0.2817     0.0570 </r>
       <r>    -3.4615     0.3268     0.0818 </r>
       <r>    -3.3854     0.3638     0.1095 </r>
       <r>    -3.3094     0.3972     0.1397 </r>
       <r>    -3.2333     0.4283     0.1722 </r>
       <r>    -3.1573     0.4560     0.2069 </r>
       <r>    -3.0813     0.4828     0.2436 </r>
       <r>    -3.0052     0.5113     0.2825 </r>
       <r>    -2.9292     0.5362     0.3233 </r>
       <r>    -2.8531     0.5548     0.3655 </r>
       <r>    -2.7771     0.5777     0.4094 </r>
       <r>    -2.7011     0.6078     0.4556 </r>
       <r>    -2.6250     0.6292     0.5035 </r>
       <r>    -2.5490     0.6387     0.5520 </r>
       <r>    -2.4729     0.6559     0.6019 </r>
       <r>    -2.3969     0.6875     0.6542 </r>
       <r>    -2.3209     0.7150     0.7086 </r>
       <r>    -2.2448     0.7252     0.7637 </r>
       <r>    -2.1688     0.7270     0.8190 </r>
       <r>    -2.0927     0.7417     0.8754 </r>
       <r>    -2.0167     0.7795     0.9347 </r>
       <r>    -1.9406     0.8168     0.9968 </r>
       <r>    -1.8646     0.8193     1.0591 </r>
       <r>    -1.7886     0.8009     1.1200 </r>
       <r>    -1.7125     0.8124     1.1817 </r>
       <r>    -1.6365     0.8614     1.2472 </r>
       <r>    -1.5604     0.9016     1.3158 </r>
       <r>    -1.4844     0.9059     1.3847 </r>
       <r>    -1.4084     0.8947     1.4527 </r>
       <r>    -1.3323     0.8944     1.5207 </r>
       <r>    -1.2563     0.9109     1.5900 </r>
       <r>    -1.1802     0.9418     1.6616 </r>
       <r>    -1.1042     0.9810     1.7362 </r>
       <r>    -1.0282     1.0108     1.8131 </r>
       <r>    -0.9521     1.0096     1.8898 </r>
       <r>    -0.8761     0.9783     1.9642 </r>
       <r>    -0.8000     0.9580     2.0371 </r>
       <r>    -0.7240     0.9970     2.1129 </r>
       <r>    -0.6480     1.0798     2.1950 </r>
       <r>    -0.5719     1.1268     2.2807 </r>
       <r>    -0.4959     1.0978     2.3641 </r>
       <r>    -0.4198     1.0470     2.4438 </r>
       <r>    -0.3438     1.0422     2.5230 </r>
       <r>    -0.2678     1.0843     2.6055 </r>
       <r>    -0.1917     1.1312     2.6915 </r>
       <r>    -0.1157     1.1541     2.7792 </r>
       <r>    -0.0396     1.1629     2.8677 </r>
       <r>     0.0364     1.1821     2.9575 </r>
       <r>     0.1124     1.1980     3.0486 </r>
       <r>     0.1885     1.1769     3.1381 </r>
       <r>     0.2645     1.1401     3.2248 </r>
       <r>     0.3406     1.1452     3.3119 </r>
       <r>     0.4166     1.2014     3.4033 </r>
       <r>     0.4926     1.2729     3.5001 </r>
       <r>     0.5687     1.3244     3.6008 </r>
       <r>     0.6447     1.3214     3.7012 </r>
       <r>     0.7208     1.2583     3.7969 </r>
       <r>     0.7968     1.1942     3.8877 </r>
       <r>     0.8728     1.1980     3.9788 </r>
       <r>     0.9489     1.2716     4.0755 </r>
       <r>     1.0249     1.3617     4.1791 </r>
       <r>     1.1010     1.4089     4.2862 </r>
       <r>     1.1770     1.3868     4.3917 </r>
       <r>     1.2530     1.3333     4.4930 </r>
       <r>     1.3291     1.3221     4.5936 </r>
       <r>     1.4051     1.3648     4.6974 </r>
       <r>     1.4812     1.3955     4.8035 </r>
       <r>     1.5572     1.3797     4.9084 </r>
       <r>     1.6332     1.3689     5.0125 </r>
       <r>     1.7093     1.4142     5.1200 </r>
       <r>     1.7853     1.4943     5.2336 </r>
       <r>     1.8614     1.5482     5.3514 </r>
       <r>     1.9374     1.5356     5.4681 </r>
       <r>     2.0134     1.4624     5.5793 </r>
       <r>     2.0895     1.3666     5.6832 </r>
       <r>     2.1655     1.2976     5.7819 </r>
       <r>     2.2416     1.3112     5.8816 </r>
       <r>     2.3176     1.4259     5.9901 </r>
       <r>     2.3937     1.5647     6.1090 </r>
       <r>     2.4697     1.6185     6.2321 </r>
       <r>     2.5457     1.5773     6.3520 </r>
       <r>     2.6218     1.5200     6.4676 </r>
       <r>     2.6978     1.4915     6.5810 </r>
       <r>     2.7739     1.4799     6.6936 </r>
       <r>     2.8499     1.4885     6.8068 </r>
       <r>     2.9259     1.5382     6.9237 </r>
       <r>     3.0020     1.6191     7.0468 </r>
       <r>     3.0780     1.6771     7.1744 </r>
       <r>     3.1541     1.6588     7.3005 </r>
       <r>     3.2301     1.5953     7.4218 </r>
       <r>     3.3061     1.5921     7.5429 </r>
       <r>     3.3822     1.6788     7.6705 </r>
       <r>     3.4582     1.7595     7.8043 </r>
       <r>     3.5343     1.7614     7.9383 </r>
       <r>     3.6103     1.7221     8.0692 </r>
       <r>     3.6863     1.6889     8.1976 </r>
       <r>     3.7624     1.6507     8.3232 </r>
       <r>     3.8384     1.6150     8.4460 </r>
       <r>     3.9145     1.6398     8.5707 </r>
       <r>     3.9905     1.7246     8.7018 </r>
       <r>     4.0665     1.7629     8.8358 </r>
       <r>     4.1426     1.6836     8.9639 </r>
       <r>     4.2186     1.5734     9.0835 </r>
       <r>     4.2947     1.5625     9.2023 </r>
       <r>     4.3707     1.6462     9.3275 </r>
       <r>     4.4467     1.7158     9.4580 </r>
       <r>     4.5228     1.7198     9.5887 </r>
       <r>     4.5988     1.7060     9.7185 </r>
       <r>     4.6749     1.7295     9.8500 </r>
       <r>     4.7509     1.7789     9.9852 </r>
       <r>     4.8269     1.8117    10.1230 </r>
       <r>     4.9030     1.8247    10.2618 </r>
       <r>     4.9790     1.8378    10.4015 </r>
       <r>     5.0551     1.8419    10.5416 </r>
       <r>     5.1311     1.8232    10.6802 </r>
       <r>     5.2071     1.8047    10.8174 </r>
       <r>     5.2832     1.8065    10.9548 </r>
       <r>     5.3592     1.8003    11.0917 </r>
       <r>     5.4353     1.7563    11.2252 </r>
       <r>     5.5113     1.7063    11.3550 </r>
       <r>     5.5873     1.7134    11.4853 </r>
       <r>     5.6634     1.8027    11.6224 </r>
       <r>     5.7394     1.9370    11.7697 </r>
       <r>     5.8155     2.0408    11.9248 </r>
       <r>     5.8915     2.0702    12.0823 </r>
       <r>     5.9675     2.0489    12.2381 </r>
       <r>     6.0436     1.9850    12.3890 </r>
       <r>     6.1196     1.8423    12.5291 </r>
       <r>     6.1957     1.6736    12.6563 </r>
       <r>     6.2717     1.6399    12.7810 </r>
       <r>     6.3478     1.8164    12.9192 </r>
       <r>     6.4238     2.0775    13.0771 </r>
       <r>     6.4998     2.2238    13.2462 </r>
       <r>     6.5759     2.1758    13.4117 </r>
       <r>     6.6519     2.0183    13.5652 </r>
       <r>     6.7280     1.8891    13.7088 </r>
       <r>     6.8040     1.8711    13.8511 </r>
       <r>     6.8800     1.9551    13.9998 </r>
       <r>     6.9561     2.0540    14.1559 </r>
       <r>     7.0321     2.0781    14.3140 </r>
       <r>     7.1082     2.0228    14.4678 </r>
       <r>     7.1842     1.9662    14.6173 </r>
       <r>     7.2602     1.9742    14.7674 </r>
       <r>     7.3363     2.0252    14.9214 </r>
       <r>     7.4123     2.0603    15.0781 </r>
       <r>     7.4884     2.0830    15.2365 </r>
       <r>     7.5644     2.1380    15.3990 </r>
       <r>     7.6404     2.2110    15.5672 </r>
       <r>     7.7165     2.2314    15.7368 </r>
       <r>     7.7925     2.1723    15.9020 </r>
       <r>     7.8686     2.0901    16.0609 </r>
       <r>     7.9446     2.0399    16.2161 </r>
       <r>     8.0206     2.0139    16.3692 </r>
       <r>     8.0967     2.0166    16.5225 </r>
       <r>     8.1727     2.0872    16.6812 </r>
       <r>     8.2488     2.1949    16.8481 </r>
       <r>     8.3248     2.2570    17.0198 </r>
       <r>     8.4008     2.2692    17.1923 </r>
       <r>     8.4769     2.2789    17.3656 </r>
       <r>     8.5529     2.2707    17.5383 </r>
       <r>     8.6290     2.2117    17.7064 </r>
       <r>     8.7050     2.1571    17.8705 </r>
       <r>     8.7810     2.1928    18.0372 </r>
       <r>     8.8571     2.3031    18.2123 </r>
       <r>     8.9331     2.3646    18.3922 </r>
       <r>     9.0092     2.2807    18.5656 </r>
       <r>     9.0852     2.1098    18.7260 </r>
       <r>     9.1612     2.0341    18.8807 </r>
       <r>     9.2373     2.1715    19.0458 </r>
       <r>     9.3133     2.4271    19.2304 </r>
       <r>     9.3894     2.5728    19.4260 </r>
       <r>     9.4654     2.5035    19.6164 </r>
       <r>     9.5414     2.3443    19.7946 </r>
       <r>     9.6175     2.2673    19.9670 </r>
       <r>     9.6935     2.3122    20.1429 </r>
       <r>     9.7696     2.4095    20.3261 </r>
       <r>     9.8456     2.4710    20.5140 </r>
       <r>     9.9216     2.4555    20.7007 </r>
       <r>     9.9977     2.3888    20.8823 </r>
       <r>    10.0737     2.3213    21.0588 </r>
       <r>    10.1498     2.3183    21.2351 </r>
       <r>    10.2258     2.4371    21.4204 </r>
       <r>    10.3019     2.6156    21.6193 </r>
       <r>    10.3779     2.7109    21.8255 </r>
       <r>    10.4539     2.7083    22.0314 </r>
       <r>    10.5300     2.7073    22.2373 </r>
       <r>    10.6060     2.7232    22.4444 </r>
       <r>    10.6821     2.6957    22.6493 </r>
       <r>    10.7581     2.6498    22.8508 </r>
       <r>    10.8341     2.6733    23.0541 </r>
       <r>    10.9102     2.7540    23.2635 </r>
       <r>    10.9862     2.7649    23.4738 </r>
       <r>    11.0623     2.6336    23.6740 </r>
       <r>    11.1383     2.4427    23.8598 </r>
       <r>    11.2143     2.3300    24.0369 </r>
       <r>    11.2904     2.3413    24.2150 </r>
       <r>    11.3664     2.4235    24.3992 </r>
       <r>    11.4425     2.4989    24.5893 </r>
       <r>    11.5185     2.5020    24.7795 </r>
       <r>    11.5945     2.4168    24.9633 </r>
       <r>    11.6706     2.2971    25.1380 </r>
       <r>    11.7466     2.1844    25.3041 </r>
       <r>    11.8227     2.0497    25.4599 </r>
       <r>    11.8987     1.8943    25.6040 </r>
       <r>    11.9747     1.8187    25.7423 </r>
       <r>    12.0508     1.8791    25.8851 </r>
       <r>    12.1268     1.9607    26.0342 </r>
       <r>    12.2029     1.9162    26.1799 </r>
       <r>    12.2789     1.7581    26.3136 </r>
       <r>    12.3549     1.6096    26.4360 </r>
       <r>    12.4310     1.5408    26.5532 </r>
       <r>    12.5070     1.5326    26.6697 </r>
       <r>    12.5831     1.5250    26.7857 </r>
       <r>    12.6591     1.4544    26.8963 </r>
       <r>    12.7351     1.3110    26.9960 </r>
       <r>    12.8112     1.1586    27.0841 </r>
       <r>    12.8872     1.0573    27.1645 </r>
       <r>    12.9633     1.0007    27.2406 </r>
       <r>    13.0393     0.9422    27.3122 </r>
       <r>    13.1153     0.8528    27.3771 </r>
       <r>    13.1914     0.7558    27.4345 </r>
       <r>    13.2674     0.6905    27.4870 </r>
       <r>    13.3435     0.6345    27.5353 </r>
       <r>    13.4195     0.5378    27.5762 </r>
       <r>    13.4955     0.4339    27.6092 </r>
       <r>    13.5716     0.4135    27.6406 </r>
       <r>    13.6476     0.4832    27.6774 </r>
       <r>    13.7237     0.5484    27.7191 </r>
       <r>    13.7997     0.5422    27.7603 </r>
       <r>    13.8757     0.4780    27.7966 </r>
       <r>    13.9518     0.3849    27.8259 </r>
       <r>    14.0278     0.2888    27.8479 </r>
       <r>    14.1039     0.2307    27.8654 </r>
       <r>    14.1799     0.2257    27.8826 </r>
       <r>    14.2560     0.2372    27.9006 </r>
       <r>    14.3320     0.2303    27.9181 </r>
       <r>    14.4080     0.2082    27.9339 </r>
       <r>    14.4841     0.1816    27.9477 </r>
       <r>    14.5601     0.1499    27.9591 </r>
       <r>    14.6362     0.1193    27.9682 </r>
       <r>    14.7122     0.1000    27.9758 </r>
       <r>    14.7882     0.0892    27.9826 </r>
       <r>    14.8643     0.0790    27.9886 </r>
       <r>    14.9403     0.0672    27.9937 </r>
       <r>    15.0164     0.0508    27.9976 </r>
       <r>    15.0924     0.0288    27.9998 </r>
       <r>    15.1684     0.0090    28.0005 </r>
       <r>    15.2445    -0.0011    28.0004 </r>
       <r>    15.3205    -0.0028    28.0002 </r>
       <r>    15.3966    -0.0016    28.0000 </r>
       <r>    15.4726    -0.0005    28.0000 </r>
       <r>    15.5486    -0.0001    28.0000 </r>
       <r>    15.6247    -0.0000    28.0000 </r>
       <r>    15.7007    -0.0000    28.0000 </r>
       <r>    15.7768    -0.0000    28.0000 </r>
       <r>    15.8528    -0.0000    28.0000 </r>
       <r>    15.9288    -0.0000    28.0000 </r>
       <r>    16.0049    -0.0000    28.0000 </r>
       <r>    16.0809    -0.0000    28.0000 </r>
       <r>    16.1570    -0.0000    28.0000 </r>
       <r>    16.2330    -0.0000    28.0000 </r>
       <r>    16.3090     0.0000    28.0000 </r>
       <r>    16.3851     0.0000    28.0000 </r>
       <r>    16.4611     0.0000    28.0000 </r>
       <r>    16.5372     0.0000    28.0000 </r>
       <r>    16.6132     0.0000    28.0000 </r>
       <r>    16.6892     0.0000    28.0000 </r>
       <r>    16.7653     0.0000    28.0000 </r>
       <r>    16.8413     0.0000    28.0000 </r>
       <r>    16.9174     0.0000    28.0000 </r>
       <r>    16.9934     0.0000    28.0000 </r>
      </set>
     </set>
    </array>
   </total>
  </dos>
 </calculation>
 <structure name="finalpos" >
  <crystal>
   <varray name="basis" >
    <v>       4.35080512       0.00000000       0.00000000 </v>
    <v>      -0.00000000       4.35080512       0.00000000 </v>
    <v>       0.00000000       0.00000000       4.35080512 </v>
   </varray>
   <i name="volume">     82.35858815 </i>
   <varray name="rec_basis" >
    <v>       0.22984252       0.00000000      -0.00000000 </v>
    <v>       0.00000000       0.22984252       0.00000000 </v>
    <v>      -0.00000000      -0.00000000       0.22984252 </v>
   </varray>
  </crystal>
  <varray name="positions" >
   <v>       0.00000000       0.00000000       0.00000000 </v>
   <v>       0.00000000       0.50000000       0.50000000 </v>
   <v>       0.50000000       0.00000000       0.50000000 </v>
   <v>       0.50000000       0.50000000       0.00000000 </v>
  </varray>
 </structure>
</modeling>
