
4 atoms
1 atom types
   0.0000000000    4.1031269904 xlo xhi
   0.0000000000    4.1031269904 ylo yhi
   0.0000000000    4.1031269904 zlo zhi
  -0.0000000000   -0.0000000000   -0.0000000000 xy xz yz

Atoms # atomic

     1      1    0.0000000000    0.0000000000    0.0000000000
     2      1    0.0000000000    2.0515634952    2.0515634952
     3      1    2.0515634952    2.0515634952    0.0000000000
     4      1    2.0515634952    0.0000000000    2.0515634952
