ITEM: TIMESTEP
0
ITEM: NUMBER OF ATOMS
4
ITEM: BOX BOUNDS xy xz yz pp pp pp
0.0000000000000000e+00 4.1031269903999998e+00 -0.0000000000000000e+00
0.0000000000000000e+00 4.1031269903999998e+00 -0.0000000000000000e+00
0.0000000000000000e+00 4.1031269903999998e+00 -0.0000000000000000e+00
ITEM: ATOMS id type xs ys zs fx fy fz
1 1 0 0 0 -1.04083e-17 -2.42861e-17 8.66131e-18
4 1 0.5 0 0.5 1.38778e-17 -3.46945e-18 -8.39981e-18
3 1 0.5 0.5 0 0 -2.42861e-17 8.79683e-18
2 1 0 0.5 0.5 -2.42861e-17 -3.46945e-18 -8.94191e-18
ITEM: TIMESTEP
1
ITEM: NUMBER OF ATOMS
4
ITEM: BOX BOUNDS xy xz yz pp pp pp
0.0000000000000000e+00 4.1031269903999998e+00 -0.0000000000000000e+00
0.0000000000000000e+00 4.1031269903999998e+00 -0.0000000000000000e+00
0.0000000000000000e+00 4.1031269903999998e+00 -0.0000000000000000e+00
ITEM: ATOMS id type xs ys zs fx fy fz
1 1 0 0 0 -1.04083e-17 -2.42861e-17 8.66131e-18
4 1 0.5 0 0.5 1.38778e-17 -3.46945e-18 -8.39981e-18
3 1 0.5 0.5 0 0 -2.42861e-17 8.79683e-18
2 1 0 0.5 0.5 -2.42861e-17 -3.46945e-18 -8.94191e-18
