ITEM: TIMESTEP
0
ITEM: NUMBER OF ATOMS
4
ITEM: BOX BOUNDS xy xz yz pp pp pp
0.0000000000000000e+00 4.0723199997000004e+00 4.0320000000000002e-02
0.0000000000000000e+00 4.0317983946000000e+00 0.0000000000000000e+00
0.0000000000000000e+00 4.0319999997000000e+00 0.0000000000000000e+00
ITEM: ATOMS id type xs ys zs fx fy fz
1 1 0 0 0 -2.3142e-10 8.60431e-12 -2.31339e-10
3 1 0.5 0.5 0 2.31419e-10 -8.60428e-12 -2.3134e-10
2 1 0 0.5 0.5 -2.31419e-10 8.60426e-12 2.3134e-10
4 1 0.5 0 0.5 2.3142e-10 -8.60424e-12 2.31339e-10
ITEM: TIMESTEP
1
ITEM: NUMBER OF ATOMS
4
ITEM: BOX BOUNDS xy xz yz pp pp pp
0.0000000000000000e+00 4.0723199997000004e+00 4.0320000000000002e-02
0.0000000000000000e+00 4.0317983946000000e+00 0.0000000000000000e+00
0.0000000000000000e+00 4.0319999997000000e+00 0.0000000000000000e+00
ITEM: ATOMS id type xs ys zs fx fy fz
4 1 0.5 1 0.5 -1.24817e-13 4.11182e-12 2.76971e-13
3 1 0.5 0.5 1 -1.28522e-13 4.11266e-12 -2.76557e-13
2 1 1 0.5 0.5 1.23922e-13 -4.1098e-12 2.77427e-13
1 1 1 2.3035e-13 1 1.29424e-13 -4.11474e-12 -2.77896e-13
