<?xml version="1.0" encoding="ISO-8859-1"?>
<modeling>
 <generator>
  <i name="program" type="string">vasp </i>
  <i name="version" type="string">6.4.2  </i>
  <i name="subversion" type="string">20Jul23 (build Apr 22 2024 22:35:45) complex                          parallel </i>
  <i name="platform" type="string">LinuxGNU </i>
  <i name="date" type="string">2024 05 26 </i>
  <i name="time" type="string">16:07:49 </i>
 </generator>
 <incar>
  <i type="string" name="SYSTEM">Al fcc relaxation</i>
  <i type="string" name="PREC">Accurate</i>
  <i type="string" name="ALGO">Fast</i>
  <i type="int" name="NELM">    60</i>
  <i type="int" name="NELMIN">     4</i>
  <i type="int" name="IBRION">     2</i>
  <i name="EDIFF">      0.00000100</i>
  <i type="int" name="NSW">   100</i>
  <i type="int" name="ISIF">     2</i>
  <i name="ENCUT">    400.00000000</i>
  <i type="string" name="LREAL">Auto</i>
  <i type="int" name="ISMEAR">     1</i>
  <i name="SIGMA">      0.20000000</i>
  <i name="KSPACING">      0.08000000</i>
  <i type="logical" name="LWAVE"> F  </i>
  <i type="logical" name="LCHARG"> F  </i>
 </incar>
 <primitive_cell>
  <structure name="primitive_cell" >
   <crystal>
    <varray name="basis" >
     <v>       2.02953705       0.00000000       2.01946485 </v>
     <v>       2.02953705       0.00000000      -2.01946485 </v>
     <v>      -2.02953705       2.01946485       0.00000000 </v>
    </varray>
    <i name="volume">     16.55387135 </i>
    <varray name="rec_basis" >
     <v>       0.24636160       0.24759035       0.24759035 </v>
     <v>       0.24636160       0.24759035      -0.24759035 </v>
     <v>      -0.00000000       0.49518069       0.00000000 </v>
    </varray>
   </crystal>
   <varray name="positions" >
    <v>       0.00000000       0.00000000       0.00000000 </v>
   </varray>
  </structure>
  <varray name="primitive_index" >
   <v type="int" >        1 </v>
  </varray>
 </primitive_cell>
 <kpoints>
  <generation param="Monkhorst-Pack">
   <v type="int" name="divisions">      20       20       20 </v>
   <v name="usershift">      0.00000000       0.00000000       0.00000000 </v>
   <v name="genvec1">      0.05000000      -0.00000000       0.00000000 </v>
   <v name="genvec2">      0.00000000       0.05000000       0.00000000 </v>
   <v name="genvec3">      0.00000000       0.00000000       0.05000000 </v>
   <v name="shift">      0.50000000       0.50000000       0.50000000 </v>
  </generation>
  <varray name="kpointlist" >
   <v>       0.02500000       0.02500000       0.02500000 </v>
   <v>       0.07500000       0.02500000       0.02500000 </v>
   <v>       0.12500000       0.02500000       0.02500000 </v>
   <v>       0.17500000       0.02500000       0.02500000 </v>
   <v>       0.22500000       0.02500000       0.02500000 </v>
   <v>       0.27500000       0.02500000       0.02500000 </v>
   <v>       0.32500000       0.02500000       0.02500000 </v>
   <v>       0.37500000       0.02500000       0.02500000 </v>
   <v>       0.42500000       0.02500000       0.02500000 </v>
   <v>       0.47500000       0.02500000       0.02500000 </v>
   <v>       0.02500000       0.07500000       0.02500000 </v>
   <v>       0.07500000       0.07500000       0.02500000 </v>
   <v>       0.12500000       0.07500000       0.02500000 </v>
   <v>       0.17500000       0.07500000       0.02500000 </v>
   <v>       0.22500000       0.07500000       0.02500000 </v>
   <v>       0.27500000       0.07500000       0.02500000 </v>
   <v>       0.32500000       0.07500000       0.02500000 </v>
   <v>       0.37500000       0.07500000       0.02500000 </v>
   <v>       0.42500000       0.07500000       0.02500000 </v>
   <v>       0.47500000       0.07500000       0.02500000 </v>
   <v>       0.02500000       0.12500000       0.02500000 </v>
   <v>       0.07500000       0.12500000       0.02500000 </v>
   <v>       0.12500000       0.12500000       0.02500000 </v>
   <v>       0.17500000       0.12500000       0.02500000 </v>
   <v>       0.22500000       0.12500000       0.02500000 </v>
   <v>       0.27500000       0.12500000       0.02500000 </v>
   <v>       0.32500000       0.12500000       0.02500000 </v>
   <v>       0.37500000       0.12500000       0.02500000 </v>
   <v>       0.42500000       0.12500000       0.02500000 </v>
   <v>       0.47500000       0.12500000       0.02500000 </v>
   <v>       0.02500000       0.17500000       0.02500000 </v>
   <v>       0.07500000       0.17500000       0.02500000 </v>
   <v>       0.12500000       0.17500000       0.02500000 </v>
   <v>       0.17500000       0.17500000       0.02500000 </v>
   <v>       0.22500000       0.17500000       0.02500000 </v>
   <v>       0.27500000       0.17500000       0.02500000 </v>
   <v>       0.32500000       0.17500000       0.02500000 </v>
   <v>       0.37500000       0.17500000       0.02500000 </v>
   <v>       0.42500000       0.17500000       0.02500000 </v>
   <v>       0.47500000       0.17500000       0.02500000 </v>
   <v>       0.02500000       0.22500000       0.02500000 </v>
   <v>       0.07500000       0.22500000       0.02500000 </v>
   <v>       0.12500000       0.22500000       0.02500000 </v>
   <v>       0.17500000       0.22500000       0.02500000 </v>
   <v>       0.22500000       0.22500000       0.02500000 </v>
   <v>       0.27500000       0.22500000       0.02500000 </v>
   <v>       0.32500000       0.22500000       0.02500000 </v>
   <v>       0.37500000       0.22500000       0.02500000 </v>
   <v>       0.42500000       0.22500000       0.02500000 </v>
   <v>       0.47500000       0.22500000       0.02500000 </v>
   <v>       0.02500000       0.27500000       0.02500000 </v>
   <v>       0.07500000       0.27500000       0.02500000 </v>
   <v>       0.12500000       0.27500000       0.02500000 </v>
   <v>       0.17500000       0.27500000       0.02500000 </v>
   <v>       0.22500000       0.27500000       0.02500000 </v>
   <v>       0.27500000       0.27500000       0.02500000 </v>
   <v>       0.32500000       0.27500000       0.02500000 </v>
   <v>       0.37500000       0.27500000       0.02500000 </v>
   <v>       0.42500000       0.27500000       0.02500000 </v>
   <v>       0.47500000       0.27500000       0.02500000 </v>
   <v>       0.02500000       0.32500000       0.02500000 </v>
   <v>       0.07500000       0.32500000       0.02500000 </v>
   <v>       0.12500000       0.32500000       0.02500000 </v>
   <v>       0.17500000       0.32500000       0.02500000 </v>
   <v>       0.22500000       0.32500000       0.02500000 </v>
   <v>       0.27500000       0.32500000       0.02500000 </v>
   <v>       0.32500000       0.32500000       0.02500000 </v>
   <v>       0.37500000       0.32500000       0.02500000 </v>
   <v>       0.42500000       0.32500000       0.02500000 </v>
   <v>       0.47500000       0.32500000       0.02500000 </v>
   <v>       0.02500000       0.37500000       0.02500000 </v>
   <v>       0.07500000       0.37500000       0.02500000 </v>
   <v>       0.12500000       0.37500000       0.02500000 </v>
   <v>       0.17500000       0.37500000       0.02500000 </v>
   <v>       0.22500000       0.37500000       0.02500000 </v>
   <v>       0.27500000       0.37500000       0.02500000 </v>
   <v>       0.32500000       0.37500000       0.02500000 </v>
   <v>       0.37500000       0.37500000       0.02500000 </v>
   <v>       0.42500000       0.37500000       0.02500000 </v>
   <v>       0.47500000       0.37500000       0.02500000 </v>
   <v>       0.02500000       0.42500000       0.02500000 </v>
   <v>       0.07500000       0.42500000       0.02500000 </v>
   <v>       0.12500000       0.42500000       0.02500000 </v>
   <v>       0.17500000       0.42500000       0.02500000 </v>
   <v>       0.22500000       0.42500000       0.02500000 </v>
   <v>       0.27500000       0.42500000       0.02500000 </v>
   <v>       0.32500000       0.42500000       0.02500000 </v>
   <v>       0.37500000       0.42500000       0.02500000 </v>
   <v>       0.42500000       0.42500000       0.02500000 </v>
   <v>       0.47500000       0.42500000       0.02500000 </v>
   <v>       0.02500000       0.47500000       0.02500000 </v>
   <v>       0.07500000       0.47500000       0.02500000 </v>
   <v>       0.12500000       0.47500000       0.02500000 </v>
   <v>       0.17500000       0.47500000       0.02500000 </v>
   <v>       0.22500000       0.47500000       0.02500000 </v>
   <v>       0.27500000       0.47500000       0.02500000 </v>
   <v>       0.32500000       0.47500000       0.02500000 </v>
   <v>       0.37500000       0.47500000       0.02500000 </v>
   <v>       0.42500000       0.47500000       0.02500000 </v>
   <v>       0.47500000       0.47500000       0.02500000 </v>
   <v>       0.02500000       0.07500000       0.07500000 </v>
   <v>       0.07500000       0.07500000       0.07500000 </v>
   <v>       0.12500000       0.07500000       0.07500000 </v>
   <v>       0.17500000       0.07500000       0.07500000 </v>
   <v>       0.22500000       0.07500000       0.07500000 </v>
   <v>       0.27500000       0.07500000       0.07500000 </v>
   <v>       0.32500000       0.07500000       0.07500000 </v>
   <v>       0.37500000       0.07500000       0.07500000 </v>
   <v>       0.42500000       0.07500000       0.07500000 </v>
   <v>       0.47500000       0.07500000       0.07500000 </v>
   <v>       0.02500000       0.12500000       0.07500000 </v>
   <v>       0.07500000       0.12500000       0.07500000 </v>
   <v>       0.12500000       0.12500000       0.07500000 </v>
   <v>       0.17500000       0.12500000       0.07500000 </v>
   <v>       0.22500000       0.12500000       0.07500000 </v>
   <v>       0.27500000       0.12500000       0.07500000 </v>
   <v>       0.32500000       0.12500000       0.07500000 </v>
   <v>       0.37500000       0.12500000       0.07500000 </v>
   <v>       0.42500000       0.12500000       0.07500000 </v>
   <v>       0.47500000       0.12500000       0.07500000 </v>
   <v>       0.02500000       0.17500000       0.07500000 </v>
   <v>       0.07500000       0.17500000       0.07500000 </v>
   <v>       0.12500000       0.17500000       0.07500000 </v>
   <v>       0.17500000       0.17500000       0.07500000 </v>
   <v>       0.22500000       0.17500000       0.07500000 </v>
   <v>       0.27500000       0.17500000       0.07500000 </v>
   <v>       0.32500000       0.17500000       0.07500000 </v>
   <v>       0.37500000       0.17500000       0.07500000 </v>
   <v>       0.42500000       0.17500000       0.07500000 </v>
   <v>       0.47500000       0.17500000       0.07500000 </v>
   <v>       0.02500000       0.22500000       0.07500000 </v>
   <v>       0.07500000       0.22500000       0.07500000 </v>
   <v>       0.12500000       0.22500000       0.07500000 </v>
   <v>       0.17500000       0.22500000       0.07500000 </v>
   <v>       0.22500000       0.22500000       0.07500000 </v>
   <v>       0.27500000       0.22500000       0.07500000 </v>
   <v>       0.32500000       0.22500000       0.07500000 </v>
   <v>       0.37500000       0.22500000       0.07500000 </v>
   <v>       0.42500000       0.22500000       0.07500000 </v>
   <v>       0.47500000       0.22500000       0.07500000 </v>
   <v>       0.02500000       0.27500000       0.07500000 </v>
   <v>       0.07500000       0.27500000       0.07500000 </v>
   <v>       0.12500000       0.27500000       0.07500000 </v>
   <v>       0.17500000       0.27500000       0.07500000 </v>
   <v>       0.22500000       0.27500000       0.07500000 </v>
   <v>       0.27500000       0.27500000       0.07500000 </v>
   <v>       0.32500000       0.27500000       0.07500000 </v>
   <v>       0.37500000       0.27500000       0.07500000 </v>
   <v>       0.42500000       0.27500000       0.07500000 </v>
   <v>       0.47500000       0.27500000       0.07500000 </v>
   <v>       0.02500000       0.32500000       0.07500000 </v>
   <v>       0.07500000       0.32500000       0.07500000 </v>
   <v>       0.12500000       0.32500000       0.07500000 </v>
   <v>       0.17500000       0.32500000       0.07500000 </v>
   <v>       0.22500000       0.32500000       0.07500000 </v>
   <v>       0.27500000       0.32500000       0.07500000 </v>
   <v>       0.32500000       0.32500000       0.07500000 </v>
   <v>       0.37500000       0.32500000       0.07500000 </v>
   <v>       0.42500000       0.32500000       0.07500000 </v>
   <v>       0.47500000       0.32500000       0.07500000 </v>
   <v>       0.02500000       0.37500000       0.07500000 </v>
   <v>       0.07500000       0.37500000       0.07500000 </v>
   <v>       0.12500000       0.37500000       0.07500000 </v>
   <v>       0.17500000       0.37500000       0.07500000 </v>
   <v>       0.22500000       0.37500000       0.07500000 </v>
   <v>       0.27500000       0.37500000       0.07500000 </v>
   <v>       0.32500000       0.37500000       0.07500000 </v>
   <v>       0.37500000       0.37500000       0.07500000 </v>
   <v>       0.42500000       0.37500000       0.07500000 </v>
   <v>       0.47500000       0.37500000       0.07500000 </v>
   <v>       0.02500000       0.42500000       0.07500000 </v>
   <v>       0.07500000       0.42500000       0.07500000 </v>
   <v>       0.12500000       0.42500000       0.07500000 </v>
   <v>       0.17500000       0.42500000       0.07500000 </v>
   <v>       0.22500000       0.42500000       0.07500000 </v>
   <v>       0.27500000       0.42500000       0.07500000 </v>
   <v>       0.32500000       0.42500000       0.07500000 </v>
   <v>       0.37500000       0.42500000       0.07500000 </v>
   <v>       0.42500000       0.42500000       0.07500000 </v>
   <v>       0.47500000       0.42500000       0.07500000 </v>
   <v>       0.02500000       0.47500000       0.07500000 </v>
   <v>       0.07500000       0.47500000       0.07500000 </v>
   <v>       0.12500000       0.47500000       0.07500000 </v>
   <v>       0.17500000       0.47500000       0.07500000 </v>
   <v>       0.22500000       0.47500000       0.07500000 </v>
   <v>       0.27500000       0.47500000       0.07500000 </v>
   <v>       0.32500000       0.47500000       0.07500000 </v>
   <v>       0.37500000       0.47500000       0.07500000 </v>
   <v>       0.42500000       0.47500000       0.07500000 </v>
   <v>       0.47500000       0.47500000       0.07500000 </v>
   <v>       0.02500000       0.12500000       0.12500000 </v>
   <v>       0.07500000       0.12500000       0.12500000 </v>
   <v>       0.12500000       0.12500000       0.12500000 </v>
   <v>       0.17500000       0.12500000       0.12500000 </v>
   <v>       0.22500000       0.12500000       0.12500000 </v>
   <v>       0.27500000       0.12500000       0.12500000 </v>
   <v>       0.32500000       0.12500000       0.12500000 </v>
   <v>       0.37500000       0.12500000       0.12500000 </v>
   <v>       0.42500000       0.12500000       0.12500000 </v>
   <v>       0.47500000       0.12500000       0.12500000 </v>
   <v>       0.02500000       0.17500000       0.12500000 </v>
   <v>       0.07500000       0.17500000       0.12500000 </v>
   <v>       0.12500000       0.17500000       0.12500000 </v>
   <v>       0.17500000       0.17500000       0.12500000 </v>
   <v>       0.22500000       0.17500000       0.12500000 </v>
   <v>       0.27500000       0.17500000       0.12500000 </v>
   <v>       0.32500000       0.17500000       0.12500000 </v>
   <v>       0.37500000       0.17500000       0.12500000 </v>
   <v>       0.42500000       0.17500000       0.12500000 </v>
   <v>       0.47500000       0.17500000       0.12500000 </v>
   <v>       0.02500000       0.22500000       0.12500000 </v>
   <v>       0.07500000       0.22500000       0.12500000 </v>
   <v>       0.12500000       0.22500000       0.12500000 </v>
   <v>       0.17500000       0.22500000       0.12500000 </v>
   <v>       0.22500000       0.22500000       0.12500000 </v>
   <v>       0.27500000       0.22500000       0.12500000 </v>
   <v>       0.32500000       0.22500000       0.12500000 </v>
   <v>       0.37500000       0.22500000       0.12500000 </v>
   <v>       0.42500000       0.22500000       0.12500000 </v>
   <v>       0.47500000       0.22500000       0.12500000 </v>
   <v>       0.02500000       0.27500000       0.12500000 </v>
   <v>       0.07500000       0.27500000       0.12500000 </v>
   <v>       0.12500000       0.27500000       0.12500000 </v>
   <v>       0.17500000       0.27500000       0.12500000 </v>
   <v>       0.22500000       0.27500000       0.12500000 </v>
   <v>       0.27500000       0.27500000       0.12500000 </v>
   <v>       0.32500000       0.27500000       0.12500000 </v>
   <v>       0.37500000       0.27500000       0.12500000 </v>
   <v>       0.42500000       0.27500000       0.12500000 </v>
   <v>       0.47500000       0.27500000       0.12500000 </v>
   <v>       0.02500000       0.32500000       0.12500000 </v>
   <v>       0.07500000       0.32500000       0.12500000 </v>
   <v>       0.12500000       0.32500000       0.12500000 </v>
   <v>       0.17500000       0.32500000       0.12500000 </v>
   <v>       0.22500000       0.32500000       0.12500000 </v>
   <v>       0.27500000       0.32500000       0.12500000 </v>
   <v>       0.32500000       0.32500000       0.12500000 </v>
   <v>       0.37500000       0.32500000       0.12500000 </v>
   <v>       0.42500000       0.32500000       0.12500000 </v>
   <v>       0.47500000       0.32500000       0.12500000 </v>
   <v>       0.02500000       0.37500000       0.12500000 </v>
   <v>       0.07500000       0.37500000       0.12500000 </v>
   <v>       0.12500000       0.37500000       0.12500000 </v>
   <v>       0.17500000       0.37500000       0.12500000 </v>
   <v>       0.22500000       0.37500000       0.12500000 </v>
   <v>       0.27500000       0.37500000       0.12500000 </v>
   <v>       0.32500000       0.37500000       0.12500000 </v>
   <v>       0.37500000       0.37500000       0.12500000 </v>
   <v>       0.42500000       0.37500000       0.12500000 </v>
   <v>       0.47500000       0.37500000       0.12500000 </v>
   <v>       0.02500000       0.42500000       0.12500000 </v>
   <v>       0.07500000       0.42500000       0.12500000 </v>
   <v>       0.12500000       0.42500000       0.12500000 </v>
   <v>       0.17500000       0.42500000       0.12500000 </v>
   <v>       0.22500000       0.42500000       0.12500000 </v>
   <v>       0.27500000       0.42500000       0.12500000 </v>
   <v>       0.32500000       0.42500000       0.12500000 </v>
   <v>       0.37500000       0.42500000       0.12500000 </v>
   <v>       0.42500000       0.42500000       0.12500000 </v>
   <v>       0.47500000       0.42500000       0.12500000 </v>
   <v>       0.02500000       0.47500000       0.12500000 </v>
   <v>       0.07500000       0.47500000       0.12500000 </v>
   <v>       0.12500000       0.47500000       0.12500000 </v>
   <v>       0.17500000       0.47500000       0.12500000 </v>
   <v>       0.22500000       0.47500000       0.12500000 </v>
   <v>       0.27500000       0.47500000       0.12500000 </v>
   <v>       0.32500000       0.47500000       0.12500000 </v>
   <v>       0.37500000       0.47500000       0.12500000 </v>
   <v>       0.42500000       0.47500000       0.12500000 </v>
   <v>       0.47500000       0.47500000       0.12500000 </v>
   <v>       0.02500000       0.17500000       0.17500000 </v>
   <v>       0.07500000       0.17500000       0.17500000 </v>
   <v>       0.12500000       0.17500000       0.17500000 </v>
   <v>       0.17500000       0.17500000       0.17500000 </v>
   <v>       0.22500000       0.17500000       0.17500000 </v>
   <v>       0.27500000       0.17500000       0.17500000 </v>
   <v>       0.32500000       0.17500000       0.17500000 </v>
   <v>       0.37500000       0.17500000       0.17500000 </v>
   <v>       0.42500000       0.17500000       0.17500000 </v>
   <v>       0.47500000       0.17500000       0.17500000 </v>
   <v>       0.02500000       0.22500000       0.17500000 </v>
   <v>       0.07500000       0.22500000       0.17500000 </v>
   <v>       0.12500000       0.22500000       0.17500000 </v>
   <v>       0.17500000       0.22500000       0.17500000 </v>
   <v>       0.22500000       0.22500000       0.17500000 </v>
   <v>       0.27500000       0.22500000       0.17500000 </v>
   <v>       0.32500000       0.22500000       0.17500000 </v>
   <v>       0.37500000       0.22500000       0.17500000 </v>
   <v>       0.42500000       0.22500000       0.17500000 </v>
   <v>       0.47500000       0.22500000       0.17500000 </v>
   <v>       0.02500000       0.27500000       0.17500000 </v>
   <v>       0.07500000       0.27500000       0.17500000 </v>
   <v>       0.12500000       0.27500000       0.17500000 </v>
   <v>       0.17500000       0.27500000       0.17500000 </v>
   <v>       0.22500000       0.27500000       0.17500000 </v>
   <v>       0.27500000       0.27500000       0.17500000 </v>
   <v>       0.32500000       0.27500000       0.17500000 </v>
   <v>       0.37500000       0.27500000       0.17500000 </v>
   <v>       0.42500000       0.27500000       0.17500000 </v>
   <v>       0.47500000       0.27500000       0.17500000 </v>
   <v>       0.02500000       0.32500000       0.17500000 </v>
   <v>       0.07500000       0.32500000       0.17500000 </v>
   <v>       0.12500000       0.32500000       0.17500000 </v>
   <v>       0.17500000       0.32500000       0.17500000 </v>
   <v>       0.22500000       0.32500000       0.17500000 </v>
   <v>       0.27500000       0.32500000       0.17500000 </v>
   <v>       0.32500000       0.32500000       0.17500000 </v>
   <v>       0.37500000       0.32500000       0.17500000 </v>
   <v>       0.42500000       0.32500000       0.17500000 </v>
   <v>       0.47500000       0.32500000       0.17500000 </v>
   <v>       0.02500000       0.37500000       0.17500000 </v>
   <v>       0.07500000       0.37500000       0.17500000 </v>
   <v>       0.12500000       0.37500000       0.17500000 </v>
   <v>       0.17500000       0.37500000       0.17500000 </v>
   <v>       0.22500000       0.37500000       0.17500000 </v>
   <v>       0.27500000       0.37500000       0.17500000 </v>
   <v>       0.32500000       0.37500000       0.17500000 </v>
   <v>       0.37500000       0.37500000       0.17500000 </v>
   <v>       0.42500000       0.37500000       0.17500000 </v>
   <v>       0.47500000       0.37500000       0.17500000 </v>
   <v>       0.02500000       0.42500000       0.17500000 </v>
   <v>       0.07500000       0.42500000       0.17500000 </v>
   <v>       0.12500000       0.42500000       0.17500000 </v>
   <v>       0.17500000       0.42500000       0.17500000 </v>
   <v>       0.22500000       0.42500000       0.17500000 </v>
   <v>       0.27500000       0.42500000       0.17500000 </v>
   <v>       0.32500000       0.42500000       0.17500000 </v>
   <v>       0.37500000       0.42500000       0.17500000 </v>
   <v>       0.42500000       0.42500000       0.17500000 </v>
   <v>       0.47500000       0.42500000       0.17500000 </v>
   <v>       0.02500000       0.47500000       0.17500000 </v>
   <v>       0.07500000       0.47500000       0.17500000 </v>
   <v>       0.12500000       0.47500000       0.17500000 </v>
   <v>       0.17500000       0.47500000       0.17500000 </v>
   <v>       0.22500000       0.47500000       0.17500000 </v>
   <v>       0.27500000       0.47500000       0.17500000 </v>
   <v>       0.32500000       0.47500000       0.17500000 </v>
   <v>       0.37500000       0.47500000       0.17500000 </v>
   <v>       0.42500000       0.47500000       0.17500000 </v>
   <v>       0.47500000       0.47500000       0.17500000 </v>
   <v>       0.02500000       0.22500000       0.22500000 </v>
   <v>       0.07500000       0.22500000       0.22500000 </v>
   <v>       0.12500000       0.22500000       0.22500000 </v>
   <v>       0.17500000       0.22500000       0.22500000 </v>
   <v>       0.22500000       0.22500000       0.22500000 </v>
   <v>       0.27500000       0.22500000       0.22500000 </v>
   <v>       0.32500000       0.22500000       0.22500000 </v>
   <v>       0.37500000       0.22500000       0.22500000 </v>
   <v>       0.42500000       0.22500000       0.22500000 </v>
   <v>       0.47500000       0.22500000       0.22500000 </v>
   <v>       0.02500000       0.27500000       0.22500000 </v>
   <v>       0.07500000       0.27500000       0.22500000 </v>
   <v>       0.12500000       0.27500000       0.22500000 </v>
   <v>       0.17500000       0.27500000       0.22500000 </v>
   <v>       0.22500000       0.27500000       0.22500000 </v>
   <v>       0.27500000       0.27500000       0.22500000 </v>
   <v>       0.32500000       0.27500000       0.22500000 </v>
   <v>       0.37500000       0.27500000       0.22500000 </v>
   <v>       0.42500000       0.27500000       0.22500000 </v>
   <v>       0.47500000       0.27500000       0.22500000 </v>
   <v>       0.02500000       0.32500000       0.22500000 </v>
   <v>       0.07500000       0.32500000       0.22500000 </v>
   <v>       0.12500000       0.32500000       0.22500000 </v>
   <v>       0.17500000       0.32500000       0.22500000 </v>
   <v>       0.22500000       0.32500000       0.22500000 </v>
   <v>       0.27500000       0.32500000       0.22500000 </v>
   <v>       0.32500000       0.32500000       0.22500000 </v>
   <v>       0.37500000       0.32500000       0.22500000 </v>
   <v>       0.42500000       0.32500000       0.22500000 </v>
   <v>       0.47500000       0.32500000       0.22500000 </v>
   <v>       0.02500000       0.37500000       0.22500000 </v>
   <v>       0.07500000       0.37500000       0.22500000 </v>
   <v>       0.12500000       0.37500000       0.22500000 </v>
   <v>       0.17500000       0.37500000       0.22500000 </v>
   <v>       0.22500000       0.37500000       0.22500000 </v>
   <v>       0.27500000       0.37500000       0.22500000 </v>
   <v>       0.32500000       0.37500000       0.22500000 </v>
   <v>       0.37500000       0.37500000       0.22500000 </v>
   <v>       0.42500000       0.37500000       0.22500000 </v>
   <v>       0.47500000       0.37500000       0.22500000 </v>
   <v>       0.02500000       0.42500000       0.22500000 </v>
   <v>       0.07500000       0.42500000       0.22500000 </v>
   <v>       0.12500000       0.42500000       0.22500000 </v>
   <v>       0.17500000       0.42500000       0.22500000 </v>
   <v>       0.22500000       0.42500000       0.22500000 </v>
   <v>       0.27500000       0.42500000       0.22500000 </v>
   <v>       0.32500000       0.42500000       0.22500000 </v>
   <v>       0.37500000       0.42500000       0.22500000 </v>
   <v>       0.42500000       0.42500000       0.22500000 </v>
   <v>       0.47500000       0.42500000       0.22500000 </v>
   <v>       0.02500000       0.47500000       0.22500000 </v>
   <v>       0.07500000       0.47500000       0.22500000 </v>
   <v>       0.12500000       0.47500000       0.22500000 </v>
   <v>       0.17500000       0.47500000       0.22500000 </v>
   <v>       0.22500000       0.47500000       0.22500000 </v>
   <v>       0.27500000       0.47500000       0.22500000 </v>
   <v>       0.32500000       0.47500000       0.22500000 </v>
   <v>       0.37500000       0.47500000       0.22500000 </v>
   <v>       0.42500000       0.47500000       0.22500000 </v>
   <v>       0.47500000       0.47500000       0.22500000 </v>
   <v>       0.02500000       0.27500000       0.27500000 </v>
   <v>       0.07500000       0.27500000       0.27500000 </v>
   <v>       0.12500000       0.27500000       0.27500000 </v>
   <v>       0.17500000       0.27500000       0.27500000 </v>
   <v>       0.22500000       0.27500000       0.27500000 </v>
   <v>       0.27500000       0.27500000       0.27500000 </v>
   <v>       0.32500000       0.27500000       0.27500000 </v>
   <v>       0.37500000       0.27500000       0.27500000 </v>
   <v>       0.42500000       0.27500000       0.27500000 </v>
   <v>       0.47500000       0.27500000       0.27500000 </v>
   <v>       0.02500000       0.32500000       0.27500000 </v>
   <v>       0.07500000       0.32500000       0.27500000 </v>
   <v>       0.12500000       0.32500000       0.27500000 </v>
   <v>       0.17500000       0.32500000       0.27500000 </v>
   <v>       0.22500000       0.32500000       0.27500000 </v>
   <v>       0.27500000       0.32500000       0.27500000 </v>
   <v>       0.32500000       0.32500000       0.27500000 </v>
   <v>       0.37500000       0.32500000       0.27500000 </v>
   <v>       0.42500000       0.32500000       0.27500000 </v>
   <v>       0.47500000       0.32500000       0.27500000 </v>
   <v>       0.02500000       0.37500000       0.27500000 </v>
   <v>       0.07500000       0.37500000       0.27500000 </v>
   <v>       0.12500000       0.37500000       0.27500000 </v>
   <v>       0.17500000       0.37500000       0.27500000 </v>
   <v>       0.22500000       0.37500000       0.27500000 </v>
   <v>       0.27500000       0.37500000       0.27500000 </v>
   <v>       0.32500000       0.37500000       0.27500000 </v>
   <v>       0.37500000       0.37500000       0.27500000 </v>
   <v>       0.42500000       0.37500000       0.27500000 </v>
   <v>       0.47500000       0.37500000       0.27500000 </v>
   <v>       0.02500000       0.42500000       0.27500000 </v>
   <v>       0.07500000       0.42500000       0.27500000 </v>
   <v>       0.12500000       0.42500000       0.27500000 </v>
   <v>       0.17500000       0.42500000       0.27500000 </v>
   <v>       0.22500000       0.42500000       0.27500000 </v>
   <v>       0.27500000       0.42500000       0.27500000 </v>
   <v>       0.32500000       0.42500000       0.27500000 </v>
   <v>       0.37500000       0.42500000       0.27500000 </v>
   <v>       0.42500000       0.42500000       0.27500000 </v>
   <v>       0.47500000       0.42500000       0.27500000 </v>
   <v>       0.02500000       0.47500000       0.27500000 </v>
   <v>       0.07500000       0.47500000       0.27500000 </v>
   <v>       0.12500000       0.47500000       0.27500000 </v>
   <v>       0.17500000       0.47500000       0.27500000 </v>
   <v>       0.22500000       0.47500000       0.27500000 </v>
   <v>       0.27500000       0.47500000       0.27500000 </v>
   <v>       0.32500000       0.47500000       0.27500000 </v>
   <v>       0.37500000       0.47500000       0.27500000 </v>
   <v>       0.42500000       0.47500000       0.27500000 </v>
   <v>       0.47500000       0.47500000       0.27500000 </v>
   <v>       0.02500000       0.32500000       0.32500000 </v>
   <v>       0.07500000       0.32500000       0.32500000 </v>
   <v>       0.12500000       0.32500000       0.32500000 </v>
   <v>       0.17500000       0.32500000       0.32500000 </v>
   <v>       0.22500000       0.32500000       0.32500000 </v>
   <v>       0.27500000       0.32500000       0.32500000 </v>
   <v>       0.32500000       0.32500000       0.32500000 </v>
   <v>       0.37500000       0.32500000       0.32500000 </v>
   <v>       0.42500000       0.32500000       0.32500000 </v>
   <v>       0.47500000       0.32500000       0.32500000 </v>
   <v>       0.02500000       0.37500000       0.32500000 </v>
   <v>       0.07500000       0.37500000       0.32500000 </v>
   <v>       0.12500000       0.37500000       0.32500000 </v>
   <v>       0.17500000       0.37500000       0.32500000 </v>
   <v>       0.22500000       0.37500000       0.32500000 </v>
   <v>       0.27500000       0.37500000       0.32500000 </v>
   <v>       0.32500000       0.37500000       0.32500000 </v>
   <v>       0.37500000       0.37500000       0.32500000 </v>
   <v>       0.42500000       0.37500000       0.32500000 </v>
   <v>       0.47500000       0.37500000       0.32500000 </v>
   <v>       0.02500000       0.42500000       0.32500000 </v>
   <v>       0.07500000       0.42500000       0.32500000 </v>
   <v>       0.12500000       0.42500000       0.32500000 </v>
   <v>       0.17500000       0.42500000       0.32500000 </v>
   <v>       0.22500000       0.42500000       0.32500000 </v>
   <v>       0.27500000       0.42500000       0.32500000 </v>
   <v>       0.32500000       0.42500000       0.32500000 </v>
   <v>       0.37500000       0.42500000       0.32500000 </v>
   <v>       0.42500000       0.42500000       0.32500000 </v>
   <v>       0.47500000       0.42500000       0.32500000 </v>
   <v>       0.02500000       0.47500000       0.32500000 </v>
   <v>       0.07500000       0.47500000       0.32500000 </v>
   <v>       0.12500000       0.47500000       0.32500000 </v>
   <v>       0.17500000       0.47500000       0.32500000 </v>
   <v>       0.22500000       0.47500000       0.32500000 </v>
   <v>       0.27500000       0.47500000       0.32500000 </v>
   <v>       0.32500000       0.47500000       0.32500000 </v>
   <v>       0.37500000       0.47500000       0.32500000 </v>
   <v>       0.42500000       0.47500000       0.32500000 </v>
   <v>       0.47500000       0.47500000       0.32500000 </v>
   <v>       0.02500000       0.37500000       0.37500000 </v>
   <v>       0.07500000       0.37500000       0.37500000 </v>
   <v>       0.12500000       0.37500000       0.37500000 </v>
   <v>       0.17500000       0.37500000       0.37500000 </v>
   <v>       0.22500000       0.37500000       0.37500000 </v>
   <v>       0.27500000       0.37500000       0.37500000 </v>
   <v>       0.32500000       0.37500000       0.37500000 </v>
   <v>       0.37500000       0.37500000       0.37500000 </v>
   <v>       0.42500000       0.37500000       0.37500000 </v>
   <v>       0.47500000       0.37500000       0.37500000 </v>
   <v>       0.02500000       0.42500000       0.37500000 </v>
   <v>       0.07500000       0.42500000       0.37500000 </v>
   <v>       0.12500000       0.42500000       0.37500000 </v>
   <v>       0.17500000       0.42500000       0.37500000 </v>
   <v>       0.22500000       0.42500000       0.37500000 </v>
   <v>       0.27500000       0.42500000       0.37500000 </v>
   <v>       0.32500000       0.42500000       0.37500000 </v>
   <v>       0.37500000       0.42500000       0.37500000 </v>
   <v>       0.42500000       0.42500000       0.37500000 </v>
   <v>       0.47500000       0.42500000       0.37500000 </v>
   <v>       0.02500000       0.47500000       0.37500000 </v>
   <v>       0.07500000       0.47500000       0.37500000 </v>
   <v>       0.12500000       0.47500000       0.37500000 </v>
   <v>       0.17500000       0.47500000       0.37500000 </v>
   <v>       0.22500000       0.47500000       0.37500000 </v>
   <v>       0.27500000       0.47500000       0.37500000 </v>
   <v>       0.32500000       0.47500000       0.37500000 </v>
   <v>       0.37500000       0.47500000       0.37500000 </v>
   <v>       0.42500000       0.47500000       0.37500000 </v>
   <v>       0.47500000       0.47500000       0.37500000 </v>
   <v>       0.02500000       0.42500000       0.42500000 </v>
   <v>       0.07500000       0.42500000       0.42500000 </v>
   <v>       0.12500000       0.42500000       0.42500000 </v>
   <v>       0.17500000       0.42500000       0.42500000 </v>
   <v>       0.22500000       0.42500000       0.42500000 </v>
   <v>       0.27500000       0.42500000       0.42500000 </v>
   <v>       0.32500000       0.42500000       0.42500000 </v>
   <v>       0.37500000       0.42500000       0.42500000 </v>
   <v>       0.42500000       0.42500000       0.42500000 </v>
   <v>       0.47500000       0.42500000       0.42500000 </v>
   <v>       0.02500000       0.47500000       0.42500000 </v>
   <v>       0.07500000       0.47500000       0.42500000 </v>
   <v>       0.12500000       0.47500000       0.42500000 </v>
   <v>       0.17500000       0.47500000       0.42500000 </v>
   <v>       0.22500000       0.47500000       0.42500000 </v>
   <v>       0.27500000       0.47500000       0.42500000 </v>
   <v>       0.32500000       0.47500000       0.42500000 </v>
   <v>       0.37500000       0.47500000       0.42500000 </v>
   <v>       0.42500000       0.47500000       0.42500000 </v>
   <v>       0.47500000       0.47500000       0.42500000 </v>
   <v>       0.02500000       0.47500000       0.47500000 </v>
   <v>       0.07500000       0.47500000       0.47500000 </v>
   <v>       0.12500000       0.47500000       0.47500000 </v>
   <v>       0.17500000       0.47500000       0.47500000 </v>
   <v>       0.22500000       0.47500000       0.47500000 </v>
   <v>       0.27500000       0.47500000       0.47500000 </v>
   <v>       0.32500000       0.47500000       0.47500000 </v>
   <v>       0.37500000       0.47500000       0.47500000 </v>
   <v>       0.42500000       0.47500000       0.47500000 </v>
   <v>       0.47500000       0.47500000       0.47500000 </v>
  </varray>
  <varray name="weights" >
   <v>       0.00100000 </v>
   <v>       0.00100000 </v>
   <v>       0.00100000 </v>
   <v>       0.00100000 </v>
   <v>       0.00100000 </v>
   <v>       0.00100000 </v>
   <v>       0.00100000 </v>
   <v>       0.00100000 </v>
   <v>       0.00100000 </v>
   <v>       0.00100000 </v>
   <v>       0.00200000 </v>
   <v>       0.00200000 </v>
   <v>       0.00200000 </v>
   <v>       0.00200000 </v>
   <v>       0.00200000 </v>
   <v>       0.00200000 </v>
   <v>       0.00200000 </v>
   <v>       0.00200000 </v>
   <v>       0.00200000 </v>
   <v>       0.00200000 </v>
   <v>       0.00200000 </v>
   <v>       0.00200000 </v>
   <v>       0.00200000 </v>
   <v>       0.00200000 </v>
   <v>       0.00200000 </v>
   <v>       0.00200000 </v>
   <v>       0.00200000 </v>
   <v>       0.00200000 </v>
   <v>       0.00200000 </v>
   <v>       0.00200000 </v>
   <v>       0.00200000 </v>
   <v>       0.00200000 </v>
   <v>       0.00200000 </v>
   <v>       0.00200000 </v>
   <v>       0.00200000 </v>
   <v>       0.00200000 </v>
   <v>       0.00200000 </v>
   <v>       0.00200000 </v>
   <v>       0.00200000 </v>
   <v>       0.00200000 </v>
   <v>       0.00200000 </v>
   <v>       0.00200000 </v>
   <v>       0.00200000 </v>
   <v>       0.00200000 </v>
   <v>       0.00200000 </v>
   <v>       0.00200000 </v>
   <v>       0.00200000 </v>
   <v>       0.00200000 </v>
   <v>       0.00200000 </v>
   <v>       0.00200000 </v>
   <v>       0.00200000 </v>
   <v>       0.00200000 </v>
   <v>       0.00200000 </v>
   <v>       0.00200000 </v>
   <v>       0.00200000 </v>
   <v>       0.00200000 </v>
   <v>       0.00200000 </v>
   <v>       0.00200000 </v>
   <v>       0.00200000 </v>
   <v>       0.00200000 </v>
   <v>       0.00200000 </v>
   <v>       0.00200000 </v>
   <v>       0.00200000 </v>
   <v>       0.00200000 </v>
   <v>       0.00200000 </v>
   <v>       0.00200000 </v>
   <v>       0.00200000 </v>
   <v>       0.00200000 </v>
   <v>       0.00200000 </v>
   <v>       0.00200000 </v>
   <v>       0.00200000 </v>
   <v>       0.00200000 </v>
   <v>       0.00200000 </v>
   <v>       0.00200000 </v>
   <v>       0.00200000 </v>
   <v>       0.00200000 </v>
   <v>       0.00200000 </v>
   <v>       0.00200000 </v>
   <v>       0.00200000 </v>
   <v>       0.00200000 </v>
   <v>       0.00200000 </v>
   <v>       0.00200000 </v>
   <v>       0.00200000 </v>
   <v>       0.00200000 </v>
   <v>       0.00200000 </v>
   <v>       0.00200000 </v>
   <v>       0.00200000 </v>
   <v>       0.00200000 </v>
   <v>       0.00200000 </v>
   <v>       0.00200000 </v>
   <v>       0.00200000 </v>
   <v>       0.00200000 </v>
   <v>       0.00200000 </v>
   <v>       0.00200000 </v>
   <v>       0.00200000 </v>
   <v>       0.00200000 </v>
   <v>       0.00200000 </v>
   <v>       0.00200000 </v>
   <v>       0.00200000 </v>
   <v>       0.00200000 </v>
   <v>       0.00100000 </v>
   <v>       0.00100000 </v>
   <v>       0.00100000 </v>
   <v>       0.00100000 </v>
   <v>       0.00100000 </v>
   <v>       0.00100000 </v>
   <v>       0.00100000 </v>
   <v>       0.00100000 </v>
   <v>       0.00100000 </v>
   <v>       0.00100000 </v>
   <v>       0.00200000 </v>
   <v>       0.00200000 </v>
   <v>       0.00200000 </v>
   <v>       0.00200000 </v>
   <v>       0.00200000 </v>
   <v>       0.00200000 </v>
   <v>       0.00200000 </v>
   <v>       0.00200000 </v>
   <v>       0.00200000 </v>
   <v>       0.00200000 </v>
   <v>       0.00200000 </v>
   <v>       0.00200000 </v>
   <v>       0.00200000 </v>
   <v>       0.00200000 </v>
   <v>       0.00200000 </v>
   <v>       0.00200000 </v>
   <v>       0.00200000 </v>
   <v>       0.00200000 </v>
   <v>       0.00200000 </v>
   <v>       0.00200000 </v>
   <v>       0.00200000 </v>
   <v>       0.00200000 </v>
   <v>       0.00200000 </v>
   <v>       0.00200000 </v>
   <v>       0.00200000 </v>
   <v>       0.00200000 </v>
   <v>       0.00200000 </v>
   <v>       0.00200000 </v>
   <v>       0.00200000 </v>
   <v>       0.00200000 </v>
   <v>       0.00200000 </v>
   <v>       0.00200000 </v>
   <v>       0.00200000 </v>
   <v>       0.00200000 </v>
   <v>       0.00200000 </v>
   <v>       0.00200000 </v>
   <v>       0.00200000 </v>
   <v>       0.00200000 </v>
   <v>       0.00200000 </v>
   <v>       0.00200000 </v>
   <v>       0.00200000 </v>
   <v>       0.00200000 </v>
   <v>       0.00200000 </v>
   <v>       0.00200000 </v>
   <v>       0.00200000 </v>
   <v>       0.00200000 </v>
   <v>       0.00200000 </v>
   <v>       0.00200000 </v>
   <v>       0.00200000 </v>
   <v>       0.00200000 </v>
   <v>       0.00200000 </v>
   <v>       0.00200000 </v>
   <v>       0.00200000 </v>
   <v>       0.00200000 </v>
   <v>       0.00200000 </v>
   <v>       0.00200000 </v>
   <v>       0.00200000 </v>
   <v>       0.00200000 </v>
   <v>       0.00200000 </v>
   <v>       0.00200000 </v>
   <v>       0.00200000 </v>
   <v>       0.00200000 </v>
   <v>       0.00200000 </v>
   <v>       0.00200000 </v>
   <v>       0.00200000 </v>
   <v>       0.00200000 </v>
   <v>       0.00200000 </v>
   <v>       0.00200000 </v>
   <v>       0.00200000 </v>
   <v>       0.00200000 </v>
   <v>       0.00200000 </v>
   <v>       0.00200000 </v>
   <v>       0.00200000 </v>
   <v>       0.00200000 </v>
   <v>       0.00200000 </v>
   <v>       0.00200000 </v>
   <v>       0.00200000 </v>
   <v>       0.00200000 </v>
   <v>       0.00200000 </v>
   <v>       0.00200000 </v>
   <v>       0.00100000 </v>
   <v>       0.00100000 </v>
   <v>       0.00100000 </v>
   <v>       0.00100000 </v>
   <v>       0.00100000 </v>
   <v>       0.00100000 </v>
   <v>       0.00100000 </v>
   <v>       0.00100000 </v>
   <v>       0.00100000 </v>
   <v>       0.00100000 </v>
   <v>       0.00200000 </v>
   <v>       0.00200000 </v>
   <v>       0.00200000 </v>
   <v>       0.00200000 </v>
   <v>       0.00200000 </v>
   <v>       0.00200000 </v>
   <v>       0.00200000 </v>
   <v>       0.00200000 </v>
   <v>       0.00200000 </v>
   <v>       0.00200000 </v>
   <v>       0.00200000 </v>
   <v>       0.00200000 </v>
   <v>       0.00200000 </v>
   <v>       0.00200000 </v>
   <v>       0.00200000 </v>
   <v>       0.00200000 </v>
   <v>       0.00200000 </v>
   <v>       0.00200000 </v>
   <v>       0.00200000 </v>
   <v>       0.00200000 </v>
   <v>       0.00200000 </v>
   <v>       0.00200000 </v>
   <v>       0.00200000 </v>
   <v>       0.00200000 </v>
   <v>       0.00200000 </v>
   <v>       0.00200000 </v>
   <v>       0.00200000 </v>
   <v>       0.00200000 </v>
   <v>       0.00200000 </v>
   <v>       0.00200000 </v>
   <v>       0.00200000 </v>
   <v>       0.00200000 </v>
   <v>       0.00200000 </v>
   <v>       0.00200000 </v>
   <v>       0.00200000 </v>
   <v>       0.00200000 </v>
   <v>       0.00200000 </v>
   <v>       0.00200000 </v>
   <v>       0.00200000 </v>
   <v>       0.00200000 </v>
   <v>       0.00200000 </v>
   <v>       0.00200000 </v>
   <v>       0.00200000 </v>
   <v>       0.00200000 </v>
   <v>       0.00200000 </v>
   <v>       0.00200000 </v>
   <v>       0.00200000 </v>
   <v>       0.00200000 </v>
   <v>       0.00200000 </v>
   <v>       0.00200000 </v>
   <v>       0.00200000 </v>
   <v>       0.00200000 </v>
   <v>       0.00200000 </v>
   <v>       0.00200000 </v>
   <v>       0.00200000 </v>
   <v>       0.00200000 </v>
   <v>       0.00200000 </v>
   <v>       0.00200000 </v>
   <v>       0.00200000 </v>
   <v>       0.00200000 </v>
   <v>       0.00200000 </v>
   <v>       0.00200000 </v>
   <v>       0.00200000 </v>
   <v>       0.00200000 </v>
   <v>       0.00200000 </v>
   <v>       0.00200000 </v>
   <v>       0.00200000 </v>
   <v>       0.00200000 </v>
   <v>       0.00200000 </v>
   <v>       0.00200000 </v>
   <v>       0.00100000 </v>
   <v>       0.00100000 </v>
   <v>       0.00100000 </v>
   <v>       0.00100000 </v>
   <v>       0.00100000 </v>
   <v>       0.00100000 </v>
   <v>       0.00100000 </v>
   <v>       0.00100000 </v>
   <v>       0.00100000 </v>
   <v>       0.00100000 </v>
   <v>       0.00200000 </v>
   <v>       0.00200000 </v>
   <v>       0.00200000 </v>
   <v>       0.00200000 </v>
   <v>       0.00200000 </v>
   <v>       0.00200000 </v>
   <v>       0.00200000 </v>
   <v>       0.00200000 </v>
   <v>       0.00200000 </v>
   <v>       0.00200000 </v>
   <v>       0.00200000 </v>
   <v>       0.00200000 </v>
   <v>       0.00200000 </v>
   <v>       0.00200000 </v>
   <v>       0.00200000 </v>
   <v>       0.00200000 </v>
   <v>       0.00200000 </v>
   <v>       0.00200000 </v>
   <v>       0.00200000 </v>
   <v>       0.00200000 </v>
   <v>       0.00200000 </v>
   <v>       0.00200000 </v>
   <v>       0.00200000 </v>
   <v>       0.00200000 </v>
   <v>       0.00200000 </v>
   <v>       0.00200000 </v>
   <v>       0.00200000 </v>
   <v>       0.00200000 </v>
   <v>       0.00200000 </v>
   <v>       0.00200000 </v>
   <v>       0.00200000 </v>
   <v>       0.00200000 </v>
   <v>       0.00200000 </v>
   <v>       0.00200000 </v>
   <v>       0.00200000 </v>
   <v>       0.00200000 </v>
   <v>       0.00200000 </v>
   <v>       0.00200000 </v>
   <v>       0.00200000 </v>
   <v>       0.00200000 </v>
   <v>       0.00200000 </v>
   <v>       0.00200000 </v>
   <v>       0.00200000 </v>
   <v>       0.00200000 </v>
   <v>       0.00200000 </v>
   <v>       0.00200000 </v>
   <v>       0.00200000 </v>
   <v>       0.00200000 </v>
   <v>       0.00200000 </v>
   <v>       0.00200000 </v>
   <v>       0.00200000 </v>
   <v>       0.00200000 </v>
   <v>       0.00200000 </v>
   <v>       0.00200000 </v>
   <v>       0.00200000 </v>
   <v>       0.00200000 </v>
   <v>       0.00200000 </v>
   <v>       0.00200000 </v>
   <v>       0.00200000 </v>
   <v>       0.00200000 </v>
   <v>       0.00100000 </v>
   <v>       0.00100000 </v>
   <v>       0.00100000 </v>
   <v>       0.00100000 </v>
   <v>       0.00100000 </v>
   <v>       0.00100000 </v>
   <v>       0.00100000 </v>
   <v>       0.00100000 </v>
   <v>       0.00100000 </v>
   <v>       0.00100000 </v>
   <v>       0.00200000 </v>
   <v>       0.00200000 </v>
   <v>       0.00200000 </v>
   <v>       0.00200000 </v>
   <v>       0.00200000 </v>
   <v>       0.00200000 </v>
   <v>       0.00200000 </v>
   <v>       0.00200000 </v>
   <v>       0.00200000 </v>
   <v>       0.00200000 </v>
   <v>       0.00200000 </v>
   <v>       0.00200000 </v>
   <v>       0.00200000 </v>
   <v>       0.00200000 </v>
   <v>       0.00200000 </v>
   <v>       0.00200000 </v>
   <v>       0.00200000 </v>
   <v>       0.00200000 </v>
   <v>       0.00200000 </v>
   <v>       0.00200000 </v>
   <v>       0.00200000 </v>
   <v>       0.00200000 </v>
   <v>       0.00200000 </v>
   <v>       0.00200000 </v>
   <v>       0.00200000 </v>
   <v>       0.00200000 </v>
   <v>       0.00200000 </v>
   <v>       0.00200000 </v>
   <v>       0.00200000 </v>
   <v>       0.00200000 </v>
   <v>       0.00200000 </v>
   <v>       0.00200000 </v>
   <v>       0.00200000 </v>
   <v>       0.00200000 </v>
   <v>       0.00200000 </v>
   <v>       0.00200000 </v>
   <v>       0.00200000 </v>
   <v>       0.00200000 </v>
   <v>       0.00200000 </v>
   <v>       0.00200000 </v>
   <v>       0.00200000 </v>
   <v>       0.00200000 </v>
   <v>       0.00200000 </v>
   <v>       0.00200000 </v>
   <v>       0.00200000 </v>
   <v>       0.00200000 </v>
   <v>       0.00200000 </v>
   <v>       0.00200000 </v>
   <v>       0.00200000 </v>
   <v>       0.00200000 </v>
   <v>       0.00100000 </v>
   <v>       0.00100000 </v>
   <v>       0.00100000 </v>
   <v>       0.00100000 </v>
   <v>       0.00100000 </v>
   <v>       0.00100000 </v>
   <v>       0.00100000 </v>
   <v>       0.00100000 </v>
   <v>       0.00100000 </v>
   <v>       0.00100000 </v>
   <v>       0.00200000 </v>
   <v>       0.00200000 </v>
   <v>       0.00200000 </v>
   <v>       0.00200000 </v>
   <v>       0.00200000 </v>
   <v>       0.00200000 </v>
   <v>       0.00200000 </v>
   <v>       0.00200000 </v>
   <v>       0.00200000 </v>
   <v>       0.00200000 </v>
   <v>       0.00200000 </v>
   <v>       0.00200000 </v>
   <v>       0.00200000 </v>
   <v>       0.00200000 </v>
   <v>       0.00200000 </v>
   <v>       0.00200000 </v>
   <v>       0.00200000 </v>
   <v>       0.00200000 </v>
   <v>       0.00200000 </v>
   <v>       0.00200000 </v>
   <v>       0.00200000 </v>
   <v>       0.00200000 </v>
   <v>       0.00200000 </v>
   <v>       0.00200000 </v>
   <v>       0.00200000 </v>
   <v>       0.00200000 </v>
   <v>       0.00200000 </v>
   <v>       0.00200000 </v>
   <v>       0.00200000 </v>
   <v>       0.00200000 </v>
   <v>       0.00200000 </v>
   <v>       0.00200000 </v>
   <v>       0.00200000 </v>
   <v>       0.00200000 </v>
   <v>       0.00200000 </v>
   <v>       0.00200000 </v>
   <v>       0.00200000 </v>
   <v>       0.00200000 </v>
   <v>       0.00200000 </v>
   <v>       0.00200000 </v>
   <v>       0.00100000 </v>
   <v>       0.00100000 </v>
   <v>       0.00100000 </v>
   <v>       0.00100000 </v>
   <v>       0.00100000 </v>
   <v>       0.00100000 </v>
   <v>       0.00100000 </v>
   <v>       0.00100000 </v>
   <v>       0.00100000 </v>
   <v>       0.00100000 </v>
   <v>       0.00200000 </v>
   <v>       0.00200000 </v>
   <v>       0.00200000 </v>
   <v>       0.00200000 </v>
   <v>       0.00200000 </v>
   <v>       0.00200000 </v>
   <v>       0.00200000 </v>
   <v>       0.00200000 </v>
   <v>       0.00200000 </v>
   <v>       0.00200000 </v>
   <v>       0.00200000 </v>
   <v>       0.00200000 </v>
   <v>       0.00200000 </v>
   <v>       0.00200000 </v>
   <v>       0.00200000 </v>
   <v>       0.00200000 </v>
   <v>       0.00200000 </v>
   <v>       0.00200000 </v>
   <v>       0.00200000 </v>
   <v>       0.00200000 </v>
   <v>       0.00200000 </v>
   <v>       0.00200000 </v>
   <v>       0.00200000 </v>
   <v>       0.00200000 </v>
   <v>       0.00200000 </v>
   <v>       0.00200000 </v>
   <v>       0.00200000 </v>
   <v>       0.00200000 </v>
   <v>       0.00200000 </v>
   <v>       0.00200000 </v>
   <v>       0.00100000 </v>
   <v>       0.00100000 </v>
   <v>       0.00100000 </v>
   <v>       0.00100000 </v>
   <v>       0.00100000 </v>
   <v>       0.00100000 </v>
   <v>       0.00100000 </v>
   <v>       0.00100000 </v>
   <v>       0.00100000 </v>
   <v>       0.00100000 </v>
   <v>       0.00200000 </v>
   <v>       0.00200000 </v>
   <v>       0.00200000 </v>
   <v>       0.00200000 </v>
   <v>       0.00200000 </v>
   <v>       0.00200000 </v>
   <v>       0.00200000 </v>
   <v>       0.00200000 </v>
   <v>       0.00200000 </v>
   <v>       0.00200000 </v>
   <v>       0.00200000 </v>
   <v>       0.00200000 </v>
   <v>       0.00200000 </v>
   <v>       0.00200000 </v>
   <v>       0.00200000 </v>
   <v>       0.00200000 </v>
   <v>       0.00200000 </v>
   <v>       0.00200000 </v>
   <v>       0.00200000 </v>
   <v>       0.00200000 </v>
   <v>       0.00100000 </v>
   <v>       0.00100000 </v>
   <v>       0.00100000 </v>
   <v>       0.00100000 </v>
   <v>       0.00100000 </v>
   <v>       0.00100000 </v>
   <v>       0.00100000 </v>
   <v>       0.00100000 </v>
   <v>       0.00100000 </v>
   <v>       0.00100000 </v>
   <v>       0.00200000 </v>
   <v>       0.00200000 </v>
   <v>       0.00200000 </v>
   <v>       0.00200000 </v>
   <v>       0.00200000 </v>
   <v>       0.00200000 </v>
   <v>       0.00200000 </v>
   <v>       0.00200000 </v>
   <v>       0.00200000 </v>
   <v>       0.00200000 </v>
   <v>       0.00100000 </v>
   <v>       0.00100000 </v>
   <v>       0.00100000 </v>
   <v>       0.00100000 </v>
   <v>       0.00100000 </v>
   <v>       0.00100000 </v>
   <v>       0.00100000 </v>
   <v>       0.00100000 </v>
   <v>       0.00100000 </v>
   <v>       0.00100000 </v>
  </varray>
 </kpoints>
 <parameters>
  <separator name="general" >
   <i type="string" name="SYSTEM">Al fcc relaxation</i>
   <i type="logical" name="LCOMPAT"> F  </i>
  </separator>
  <separator name="electronic" >
   <i type="string" name="PREC">accura</i>
   <i name="ENMAX">    400.00000000</i>
   <i name="ENAUG">    291.05200000</i>
   <i name="EDIFF">      0.00000100</i>
   <i type="int" name="IALGO">    68</i>
   <i type="int" name="IWAVPR">    11</i>
   <i type="int" name="NBANDS">    14</i>
   <i type="int" name="NBANDSLOW">    -1</i>
   <i type="int" name="NBANDSHIGH">    -1</i>
   <i name="NELECT">     12.00000000</i>
   <i type="int" name="TURBO">     0</i>
   <i type="int" name="IRESTART">     0</i>
   <i type="int" name="NREBOOT">     0</i>
   <i type="int" name="NMIN">     0</i>
   <i name="EREF">      0.00000000</i>
   <separator name="electronic smearing" >
    <i type="int" name="ISMEAR">     1</i>
    <i name="SIGMA">      0.20000000</i>
    <i name="KSPACING">      0.08000000</i>
    <i type="logical" name="KGAMMA"> T  </i>
    <i type="logical" name="KBLOWUP"> T  </i>
   </separator>
   <separator name="electronic projectors" >
    <i type="logical" name="LREAL"> T  </i>
    <v name="ROPT">     -0.00025000</v>
    <i type="int" name="LMAXPAW">  -100</i>
    <i type="int" name="LMAXMIX">     2</i>
    <i type="logical" name="NLSPLINE"> F  </i>
   </separator>
   <separator name="electronic startup" >
    <i type="int" name="ISTART">     0</i>
    <i type="int" name="ICHARG">     2</i>
    <i type="int" name="INIWAV">     1</i>
   </separator>
   <separator name="electronic spin" >
    <i type="int" name="ISPIN">     1</i>
    <i type="logical" name="LNONCOLLINEAR"> F  </i>
    <v name="MAGMOM">      1.00000000      1.00000000      1.00000000      1.00000000</v>
    <i name="NUPDOWN">     -1.00000000</i>
    <i type="logical" name="LSORBIT"> F  </i>
    <v name="SAXIS">      0.00000000      0.00000000      1.00000000</v>
    <i type="logical" name="LSPIRAL"> F  </i>
    <v name="QSPIRAL">      0.00000000      0.00000000      0.00000000</v>
    <i type="logical" name="LZEROZ"> F  </i>
   </separator>
   <separator name="electronic exchange-correlation" >
    <i type="logical" name="LASPH"> F  </i>
    <i type="logical" name="LMETAGGA"> F  </i>
   </separator>
   <separator name="electronic convergence" >
    <i type="int" name="NELM">    60</i>
    <i type="int" name="NELMDL">    -5</i>
    <i type="int" name="NELMIN">     4</i>
    <i name="ENINI">    400.00000000</i>
    <separator name="electronic convergence detail" >
     <i type="logical" name="LDIAG"> T  </i>
     <i type="logical" name="LSUBROT"> F  </i>
     <i name="WEIMIN">      0.00100000</i>
     <i name="EBREAK">      0.00000002</i>
     <i name="DEPER">      0.30000000</i>
     <i type="int" name="NRMM">     4</i>
     <i name="TIME">      0.40000000</i>
    </separator>
   </separator>
   <separator name="electronic mixer" >
    <i name="AMIX">      0.40000000</i>
    <i name="BMIX">      1.00000000</i>
    <i name="AMIN">      0.10000000</i>
    <i name="AMIX_MAG">      1.60000000</i>
    <i name="BMIX_MAG">      1.00000000</i>
    <separator name="electronic mixer details" >
     <i type="int" name="IMIX">     4</i>
     <i type="logical" name="MIXFIRST"> F  </i>
     <i type="int" name="MAXMIX">   -45</i>
     <i name="WC">    100.00000000</i>
     <i type="int" name="INIMIX">     1</i>
     <i type="int" name="MIXPRE">     1</i>
     <i type="int" name="MREMOVE">     5</i>
    </separator>
   </separator>
   <separator name="electronic dipolcorrection" >
    <i type="logical" name="LDIPOL"> F  </i>
    <i type="logical" name="LMONO"> F  </i>
    <i type="int" name="IDIPOL">     0</i>
    <i name="EPSILON">      1.00000000</i>
    <v name="DIPOL">   -100.00000000   -100.00000000   -100.00000000</v>
    <i name="EFIELD">      0.00000000</i>
   </separator>
  </separator>
  <separator name="grids" >
   <i type="int" name="NGX">    28</i>
   <i type="int" name="NGY">    28</i>
   <i type="int" name="NGZ">    28</i>
   <i type="int" name="NGXF">    56</i>
   <i type="int" name="NGYF">    56</i>
   <i type="int" name="NGZF">    56</i>
   <i type="logical" name="ADDGRID"> F  </i>
  </separator>
  <separator name="ionic" >
   <i type="int" name="NSW">   100</i>
   <i type="int" name="IBRION">     2</i>
   <i type="int" name="MDALGO">     0</i>
   <i type="int" name="ISIF">     2</i>
   <i name="PSTRESS">      0.00000000</i>
   <i name="EDIFFG">      0.00001000</i>
   <i type="int" name="NFREE">     1</i>
   <i name="POTIM">      0.50000000</i>
   <i name="SMASS">     -3.00000000</i>
   <i name="SCALEE">      1.00000000</i>
  </separator>
  <separator name="ionic md" >
   <i name="TEBEG">      0.00010000</i>
   <i name="TEEND">      0.00010000</i>
   <i type="int" name="NBLOCK">     1</i>
   <i type="int" name="KBLOCK">   100</i>
   <i type="int" name="NPACO">   256</i>
   <i name="APACO">     10.00000000</i>
  </separator>
  <separator name="symmetry" >
   <i type="int" name="ISYM">     2</i>
   <i name="SYMPREC">      0.00001000</i>
  </separator>
  <separator name="dos" >
   <i type="int" name="LORBIT">     0</i>
   <v name="RWIGS">     -1.00000000</v>
   <i type="int" name="NEDOS">   301</i>
   <i name="EMIN">     10.00000000</i>
   <i name="EMAX">    -10.00000000</i>
   <i name="EFERMI">      0.00000000</i>
  </separator>
  <separator name="writing" >
   <i type="int" name="NWRITE">     2</i>
   <i type="logical" name="LWAVE"> F  </i>
   <i type="logical" name="LDOWNSAMPLE"> F  </i>
   <i type="logical" name="LCHARG"> F  </i>
   <i type="logical" name="LPARD"> F  </i>
   <i type="logical" name="LVTOT"> F  </i>
   <i type="logical" name="LVHAR"> F  </i>
   <i type="logical" name="LELF"> F  </i>
   <i type="logical" name="LOPTICS"> F  </i>
   <v name="STM">      0.00000000      0.00000000      0.00000000      0.00000000      0.00000000      0.00000000      0.00000000</v>
  </separator>
  <separator name="performance" >
   <i type="int" name="NPAR">    14</i>
   <i type="int" name="NSIM">     4</i>
   <i type="int" name="NBLK">    -1</i>
   <i type="logical" name="LPLANE"> T  </i>
   <i type="logical" name="LSCALAPACK"> T  </i>
   <i type="logical" name="LSCAAWARE"> F  </i>
   <i type="logical" name="LSCALU"> F  </i>
   <i type="logical" name="LASYNC"> F  </i>
   <i type="logical" name="LORBITALREAL"> F  </i>
  </separator>
  <separator name="miscellaneous" >
   <i type="int" name="IDIOT">     3</i>
   <i type="int" name="PHON_NSTRUCT">    -1</i>
   <i type="logical" name="LMUSIC"> F  </i>
   <v name="POMASS">     26.98100000</v>
   <v name="DARWINR">      0.00000000</v>
   <v name="DARWINV">      1.00000000</v>
   <i type="logical" name="LCORR"> T  </i>
  </separator>
  <i type="logical" name="GGA_COMPAT"> T  </i>
  <i type="logical" name="LBERRY"> F  </i>
  <i type="int" name="ICORELEVEL">     0</i>
  <i type="logical" name="LDAU"> F  </i>
  <i type="int" name="I_CONSTRAINED_M">     0</i>
  <separator name="electronic exchange-correlation" >
   <i type="string" name="GGA">--</i>
   <i type="int" name="VOSKOWN">     0</i>
   <i type="logical" name="LHFCALC"> F  </i>
   <i type="string" name="PRECFOCK"></i>
   <i type="logical" name="LSYMGRAD"> F  </i>
   <i type="logical" name="LHFONE"> F  </i>
   <i type="logical" name="LRHFCALC"> F  </i>
   <i type="logical" name="LTHOMAS"> F  </i>
   <i type="logical" name="LMODELHF"> F  </i>
   <i type="logical" name="LFOCKACE"> F  </i>
   <i name="ENCUT4O">     -1.00000000</i>
   <i type="int" name="EXXOEP">     0</i>
   <i type="int" name="FOURORBIT">     0</i>
   <i name="AEXX">      0.00000000</i>
   <i name="HFALPHA">      0.00000000</i>
   <i name="MCALPHA">      0.00000000</i>
   <i name="ALDAX">      1.00000000</i>
   <i name="AGGAX">      1.00000000</i>
   <i name="ALDAC">      1.00000000</i>
   <i name="AGGAC">      1.00000000</i>
   <i type="int" name="NKREDX">     1</i>
   <i type="int" name="NKREDY">     1</i>
   <i type="int" name="NKREDZ">     1</i>
   <i type="logical" name="SHIFTRED"> F  </i>
   <i type="logical" name="ODDONLY"> F  </i>
   <i type="logical" name="EVENONLY"> F  </i>
   <i type="int" name="LMAXFOCK">     0</i>
   <i type="int" name="NMAXFOCKAE">     0</i>
   <i type="logical" name="LFOCKAEDFT"> F  </i>
   <i name="HFSCREEN">      0.00000000</i>
   <i name="HFSCREENC">      0.00000000</i>
   <i type="int" name="NBANDSGWLOW">     0</i>
  </separator>
  <separator name="vdW DFT" >
   <i type="logical" name="LUSE_VDW"> F  </i>
   <i type="int" name="IVDW_NL">     1</i>
   <i type="logical" name="LSPIN_VDW"> F  </i>
   <i name="Zab_VDW">     -0.84910000</i>
   <i name="PARAM1">      0.12340000</i>
   <i name="PARAM2">      1.00000000</i>
   <i name="PARAM3">      0.00000000</i>
  </separator>
  <separator name="model GW" >
   <i type="int" name="MODEL_GW">     0</i>
   <i name="MODEL_EPS0">      9.93232281</i>
   <i name="MODEL_ALPHA">      1.00000000</i>
  </separator>
  <separator name="linear response parameters" >
   <i type="logical" name="LEPSILON"> F  </i>
   <i type="logical" name="LRPA"> F  </i>
   <i type="logical" name="LNABLA"> F  </i>
   <i type="logical" name="LVEL"> F  </i>
   <i name="CSHIFT">      0.10000000</i>
   <i name="OMEGAMAX">     -1.00000000</i>
   <i name="DEG_THRESHOLD">      0.00200000</i>
   <i name="RTIME">     -0.10000000</i>
   <i name="WPLASMAI">      0.00000000</i>
   <v name="DFIELD">      0.00000000      0.00000000      0.00000000</v>
   <v name="WPLASMA">      0.00000000      0.00000000      0.00000000      0.00000000      0.00000000      0.00000000      0.00000000      0.00000000      0.00000000</v>
  </separator>
  <separator name="orbital magnetization" >
   <i type="logical" name="NUCIND"> F  </i>
   <v name="MAGPOS">      0.00000000      0.00000000      0.00000000</v>
   <i type="logical" name="LNICSALL"> T  </i>
   <i type="logical" name="ORBITALMAG"> F  </i>
   <i type="logical" name="LMAGBLOCH"> F  </i>
   <i type="logical" name="LCHIMAG"> F  </i>
   <i type="logical" name="LGAUGE"> T  </i>
   <i type="int" name="MAGATOM">     0</i>
   <v name="MAGDIPOL">      0.00000000      0.00000000      0.00000000</v>
   <v name="AVECCONST">      0.00000000      0.00000000      0.00000000</v>
  </separator>
  <separator name="response functions" >
   <i type="logical" name="LALL_IN_ONE"> F  </i>
   <i type="int" name="IALL_IN_ONE">    -1</i>
   <i type="int" name="NBANDS_WAVE">    -1</i>
   <i type="logical" name="LFINITE_TEMPERATURE"> F  </i>
   <i type="logical" name="LADDER"> F  </i>
   <i type="logical" name="LRPAFORCE"> F  </i>
   <i type="logical" name="LFXC"> F  </i>
   <i type="logical" name="LHARTREE"> T  </i>
   <i type="int" name="IBSE">     0</i>
   <v type="int" name="KPOINT">    -1     0     0     0</v>
   <i type="logical" name="LTCTC"> F  </i>
   <i type="logical" name="LTCTE"> F  </i>
   <i type="logical" name="LTETE"> F  </i>
   <i type="logical" name="LTRIPLET"> F  </i>
   <i type="logical" name="LFXCEPS"> F  </i>
   <i type="logical" name="LFXHEG"> F  </i>
   <i type="int" name="NATURALO">     2</i>
   <i type="logical" name="LHOLEGF"> F  </i>
   <i type="logical" name="L2ORDER"> F  </i>
   <i type="logical" name="LDMP1"> F  </i>
   <i type="logical" name="LMP2LT"> F  </i>
   <i type="logical" name="LSMP2LT"> F  </i>
   <i type="logical" name="LGWLF"> F  </i>
   <i name="ENCUTGW">     -1.60000002</i>
   <i name="ENCUTGWSOFT">     -1.60000002</i>
   <i name="ENCUTLF">     -1.00000000</i>
   <i type="logical" name="LESF_SPLINES"> F  </i>
   <i type="int" name="LMAXMP2">    -1</i>
   <i name="SCISSOR">      0.00000000</i>
   <i type="int" name="NOMEGA">     0</i>
   <i type="int" name="NOMEGAR">     0</i>
   <i type="int" name="NBANDSGW">    -1</i>
   <i type="int" name="NBANDSO">    -1</i>
   <i type="int" name="NBANDSV">    -1</i>
   <i type="int" name="NELMGW">     1</i>
   <i type="int" name="NELMHF">     1</i>
   <i type="int" name="DIM">     3</i>
   <i type="int" name="IESPILON">     4</i>
   <i type="int" name="ANTIRES">     0</i>
   <i name="OMEGAMAX">    -30.00000000</i>
   <i name="OMEGAMIN">    -30.00000000</i>
   <i name="OMEGATL">   -200.00000000</i>
   <i type="int" name="OMEGAGRID">     0</i>
   <i name="CSHIFT">     -0.10000000</i>
   <i type="logical" name="LSELFENERGY"> F  </i>
   <i type="logical" name="LSPECTRAL"> F  </i>
   <i type="logical" name="LSPECTRALGW"> F  </i>
   <i type="logical" name="LSINGLES"> F  </i>
   <i type="logical" name="LFERMIGW"> F  </i>
   <i type="logical" name="ODDONLYGW"> F  </i>
   <i type="logical" name="EVENONLYGW"> F  </i>
   <i type="int" name="NKREDLFX">     1</i>
   <i type="int" name="NKREDLFY">     1</i>
   <i type="int" name="NKREDLFZ">     1</i>
   <i type="int" name="MAXMEM">  2800</i>
   <i type="int" name="TELESCOPE">     0</i>
   <i type="int" name="NTAUPAR">    -1</i>
   <i type="int" name="NOMEGAPAR">    -1</i>
   <i name="DAMP_NEWTON">      0.80000001</i>
   <i name="LAMBDA">      1.00000000</i>
  </separator>
  <separator name="External order field" >
   <i name="OFIELD_KAPPA">      0.00000000</i>
   <v name="OFIELD_K">      0.00000000      0.00000000      0.00000000</v>
   <i name="OFIELD_Q6_NEAR">      0.00000000</i>
   <i name="OFIELD_Q6_FAR">      0.00000000</i>
   <i name="OFIELD_A">      0.00000000</i>
  </separator>
  <separator name="optional k-points parameters" >
   <i type="int" name="KPOINTS_OPT_MODE">     1</i>
   <i type="logical" name="LKPOINTS_OPT"> F  </i>
  </separator>
 </parameters>
 <atominfo>
  <atoms>       4 </atoms>
  <types>       1 </types>
  <array name="atoms" >
   <dimension dim="1">ion</dimension>
   <field type="string">element</field>
   <field type="int">atomtype</field>
   <set>
    <rc><c>Al</c><c>   1</c></rc>
    <rc><c>Al</c><c>   1</c></rc>
    <rc><c>Al</c><c>   1</c></rc>
    <rc><c>Al</c><c>   1</c></rc>
   </set>
  </array>
  <array name="atomtypes" >
   <dimension dim="1">type</dimension>
   <field type="int">atomspertype</field>
   <field type="string">element</field>
   <field>mass</field>
   <field>valence</field>
   <field type="string">pseudopotential</field>
   <set>
    <rc><c>   4</c><c>Al</c><c>     26.98100000</c><c>      3.00000000</c><c>  PAW_PBE Al 04Jan2001                  </c></rc>
   </set>
  </array>
 </atominfo>
 <structure name="initialpos" >
  <crystal>
   <varray name="basis" >
    <v>       4.05907411       0.00000000       0.00000000 </v>
    <v>      -0.00000000       4.03892969       0.00000000 </v>
    <v>       0.00000000       0.00000000       4.03892969 </v>
   </varray>
   <i name="volume">     66.21548538 </i>
   <varray name="rec_basis" >
    <v>       0.24636160       0.00000000      -0.00000000 </v>
    <v>       0.00000000       0.24759035      -0.00000000 </v>
    <v>       0.00000000      -0.00000000       0.24759035 </v>
   </varray>
  </crystal>
  <varray name="positions" >
   <v>       0.00000000       0.00000000       0.00000000 </v>
   <v>       0.00000000       0.50000000       0.50000000 </v>
   <v>       0.50000000       0.00000000       0.50000000 </v>
   <v>       0.50000000       0.50000000       0.00000000 </v>
  </varray>
 </structure>
 <calculation>
  <scstep>
   <time name="dav">   26.80   13.48</time>
   <time name="total">   26.86   13.51</time>
   <energy>
    <i name="alphaZ">     -0.81160711 </i>
    <i name="ewald">   -293.74343254 </i>
    <i name="hartreedc">     -0.41049596 </i>
    <i name="XCdc">   -104.98243983 </i>
    <i name="pawpsdc">    264.80062850 </i>
    <i name="pawaedc">   -136.98248303 </i>
    <i name="eentropy">     -0.00155878 </i>
    <i name="bandstr">     55.62231728 </i>
    <i name="atom">    214.15261729 </i>
    <i name="e_fr_energy">     -2.35645418 </i>
    <i name="e_wo_entrp">     -2.35489539 </i>
    <i name="e_0_energy">     -2.35593458 </i>
   </energy>
  </scstep>
  <scstep>
   <time name="dav">   38.56   19.34</time>
   <time name="total">   38.57   19.35</time>
   <energy>
    <i name="e_fr_energy">    -15.00305552 </i>
    <i name="e_wo_entrp">    -15.00508493 </i>
    <i name="e_0_energy">    -15.00373199 </i>
   </energy>
  </scstep>
  <scstep>
   <time name="dav">   35.13   17.61</time>
   <time name="total">   35.13   17.61</time>
   <energy>
    <i name="e_fr_energy">    -15.07626179 </i>
    <i name="e_wo_entrp">    -15.07845073 </i>
    <i name="e_0_energy">    -15.07699143 </i>
   </energy>
  </scstep>
  <scstep>
   <time name="dav">   44.37   22.26</time>
   <time name="total">   44.38   22.27</time>
   <energy>
    <i name="e_fr_energy">    -15.07641738 </i>
    <i name="e_wo_entrp">    -15.07860744 </i>
    <i name="e_0_energy">    -15.07714740 </i>
   </energy>
  </scstep>
  <scstep>
   <time name="dav">   35.85   17.99</time>
   <time name="total">   36.76   18.45</time>
   <energy>
    <i name="e_fr_energy">    -15.07641748 </i>
    <i name="e_wo_entrp">    -15.07860753 </i>
    <i name="e_0_energy">    -15.07714750 </i>
   </energy>
  </scstep>
  <scstep>
   <time name="diag">    4.37    2.19</time>
   <time name="diis">    8.61    4.51</time>
   <time name="orth">    0.30    0.15</time>
   <time name="total">   14.23    7.33</time>
   <energy>
    <i name="e_fr_energy">    -15.02452098 </i>
    <i name="e_wo_entrp">    -15.02673199 </i>
    <i name="e_0_energy">    -15.02525798 </i>
   </energy>
  </scstep>
  <scstep>
   <time name="diag">    4.34    2.18</time>
   <time name="diis">    8.68    4.54</time>
   <time name="orth">    0.30    0.15</time>
   <time name="total">   14.27    7.34</time>
   <energy>
    <i name="e_fr_energy">    -14.98655738 </i>
    <i name="e_wo_entrp">    -14.98878281 </i>
    <i name="e_0_energy">    -14.98729919 </i>
   </energy>
  </scstep>
  <scstep>
   <time name="diag">    4.40    2.20</time>
   <time name="diis">    8.65    4.54</time>
   <time name="orth">    0.30    0.15</time>
   <time name="total">   14.30    7.37</time>
   <energy>
    <i name="e_fr_energy">    -14.98652676 </i>
    <i name="e_wo_entrp">    -14.98875206 </i>
    <i name="e_0_energy">    -14.98726852 </i>
   </energy>
  </scstep>
  <scstep>
   <time name="diag">    4.32    2.17</time>
   <time name="diis">    8.68    4.54</time>
   <time name="orth">    0.30    0.15</time>
   <time name="total">   14.24    7.33</time>
   <energy>
    <i name="e_fr_energy">    -14.98653246 </i>
    <i name="e_wo_entrp">    -14.98875779 </i>
    <i name="e_0_energy">    -14.98727424 </i>
   </energy>
  </scstep>
  <scstep>
   <time name="diag">    4.32    2.17</time>
   <time name="diis">    8.67    4.54</time>
   <time name="orth">    0.30    0.15</time>
   <time name="total">   14.25    7.33</time>
   <energy>
    <i name="e_fr_energy">    -14.98653353 </i>
    <i name="e_wo_entrp">    -14.98875885 </i>
    <i name="e_0_energy">    -14.98727530 </i>
   </energy>
  </scstep>
  <scstep>
   <time name="diag">    4.44    2.23</time>
   <time name="diis">    8.34    4.52</time>
   <time name="orth">    0.40    0.20</time>
   <time name="total">   14.15    7.43</time>
   <energy>
    <i name="e_fr_energy">    -14.98652900 </i>
    <i name="e_wo_entrp">    -14.98875434 </i>
    <i name="e_0_energy">    -14.98727078 </i>
   </energy>
  </scstep>
  <scstep>
   <time name="diag">    4.32    2.16</time>
   <time name="diis">    6.69    4.13</time>
   <time name="orth">    0.30    0.15</time>
   <time name="total">   11.37    6.47</time>
   <energy>
    <i name="alphaZ">     -0.81160711 </i>
    <i name="ewald">   -293.74343254 </i>
    <i name="hartreedc">     -0.41644370 </i>
    <i name="XCdc">   -104.54907270 </i>
    <i name="pawpsdc">    560.01475739 </i>
    <i name="pawaedc">   -432.24426376 </i>
    <i name="eentropy">      0.00222535 </i>
    <i name="bandstr">     42.60869086 </i>
    <i name="atom">    214.15261729 </i>
    <i name="e_fr_energy">    -14.98652892 </i>
    <i name="e_wo_entrp">    -14.98875427 </i>
    <i name="e_0_energy">    -14.98727070 </i>
   </energy>
  </scstep>
  <structure>
   <crystal>
    <varray name="basis" >
     <v>       4.05907411       0.00000000       0.00000000 </v>
     <v>      -0.00000000       4.03892969       0.00000000 </v>
     <v>       0.00000000       0.00000000       4.03892969 </v>
    </varray>
    <i name="volume">     66.21548538 </i>
    <varray name="rec_basis" >
     <v>       0.24636160       0.00000000      -0.00000000 </v>
     <v>       0.00000000       0.24759035      -0.00000000 </v>
     <v>       0.00000000      -0.00000000       0.24759035 </v>
    </varray>
   </crystal>
   <varray name="positions" >
    <v>       0.00000000       0.00000000       0.00000000 </v>
    <v>       0.00000000       0.50000000       0.50000000 </v>
    <v>       0.50000000       0.00000000       0.50000000 </v>
    <v>       0.50000000       0.50000000       0.00000000 </v>
   </varray>
  </structure>
  <varray name="forces" >
   <v>      -0.00000000      -0.00000000      -0.00000000 </v>
   <v>       0.00000000       0.00000000       0.00000000 </v>
   <v>      -0.00000000      -0.00000000       0.00000000 </v>
   <v>      -0.00000000       0.00000000      -0.00000000 </v>
  </varray>
  <varray name="stress" >
   <v>      -6.78081779       0.00000000      -0.00000000 </v>
   <v>      -0.00000000      -2.30599970       0.00000000 </v>
   <v>      -0.00000000       0.00000000      -2.30599970 </v>
  </varray>
  <energy>
   <i name="e_fr_energy">    -14.98652892 </i>
   <i name="e_wo_entrp">    -14.98875427 </i>
   <i name="e_0_energy">    -14.98727070 </i>
  </energy>
  <time name="totalsc">  303.06  154.30</time>
  <eigenvalues>
   <array>
    <dimension dim="1">band</dimension>
    <dimension dim="2">kpoint</dimension>
    <dimension dim="3">spin</dimension>
    <field>eigene</field>
    <field>occ</field>
    <set>
     <set comment="spin 1">
      <set comment="kpoint 1">
       <r>   -3.1287    1.0000 </r>
       <r>    4.8895    1.0000 </r>
       <r>    4.9610    1.0000 </r>
       <r>    4.9610    1.0000 </r>
       <r>    6.4429    1.0000 </r>
       <r>    6.5449    1.0000 </r>
       <r>    6.5449    1.0000 </r>
       <r>   12.7338   -0.0000 </r>
       <r>   12.7339   -0.0000 </r>
       <r>   12.8016   -0.0000 </r>
       <r>   13.5294    0.0000 </r>
       <r>   13.5295    0.0000 </r>
       <r>   13.6212    0.0000 </r>
       <r>   13.9192    0.0000 </r>
      </set>
      <set comment="kpoint 2">
       <r>   -3.0838    1.0000 </r>
       <r>    4.2662    1.0000 </r>
       <r>    5.0024    1.0000 </r>
       <r>    5.0024    1.0000 </r>
       <r>    6.5880    1.0000 </r>
       <r>    6.5880    1.0000 </r>
       <r>    7.1440    1.0000 </r>
       <r>   12.0213   -0.0000 </r>
       <r>   12.0213   -0.0000 </r>
       <r>   12.8435   -0.0000 </r>
       <r>   13.2896   -0.0000 </r>
       <r>   13.2896   -0.0000 </r>
       <r>   13.6592    0.0000 </r>
       <r>   14.0384    0.0000 </r>
      </set>
      <set comment="kpoint 3">
       <r>   -2.9940    1.0000 </r>
       <r>    3.5466    1.0000 </r>
       <r>    5.0852    1.0000 </r>
       <r>    5.0852    1.0000 </r>
       <r>    6.6741    1.0000 </r>
       <r>    6.6741    1.0000 </r>
       <r>    8.0194    0.3399 </r>
       <r>   11.2931   -0.0000 </r>
       <r>   11.2931   -0.0000 </r>
       <r>   12.7968   -0.0000 </r>
       <r>   12.7968   -0.0000 </r>
       <r>   12.9273   -0.0000 </r>
       <r>   13.7355    0.0000 </r>
       <r>   14.1199    0.0000 </r>
      </set>
      <set comment="kpoint 4">
       <r>   -2.8594    1.0000 </r>
       <r>    2.8355    1.0000 </r>
       <r>    5.2094    1.0000 </r>
       <r>    5.2094    1.0000 </r>
       <r>    6.8026    1.0000 </r>
       <r>    6.8026    1.0000 </r>
       <r>    8.9639   -0.0000 </r>
       <r>   10.5959   -0.0000 </r>
       <r>   10.5959   -0.0000 </r>
       <r>   12.2282   -0.0000 </r>
       <r>   12.2282   -0.0000 </r>
       <r>   13.0529   -0.0000 </r>
       <r>   13.8500    0.0000 </r>
       <r>   14.2421    0.0000 </r>
      </set>
      <set comment="kpoint 5">
       <r>   -2.6802    1.0000 </r>
       <r>    2.1535    1.0000 </r>
       <r>    5.3749    1.0000 </r>
       <r>    5.3749    1.0000 </r>
       <r>    6.9727    1.0000 </r>
       <r>    6.9727    1.0000 </r>
       <r>    9.9367   -0.0000 </r>
       <r>    9.9367   -0.0000 </r>
       <r>    9.9568   -0.0000 </r>
       <r>   11.6433   -0.0000 </r>
       <r>   11.6433   -0.0000 </r>
       <r>   13.2202   -0.0000 </r>
       <r>   14.0026    0.0000 </r>
       <r>   14.4051    0.0000 </r>
      </set>
      <set comment="kpoint 6">
       <r>   -2.4564    1.0000 </r>
       <r>    1.5072    1.0000 </r>
       <r>    5.5818    1.0000 </r>
       <r>    5.5818    1.0000 </r>
       <r>    7.1828    1.0000 </r>
       <r>    7.1828    1.0000 </r>
       <r>    9.3181   -0.0000 </r>
       <r>    9.3181   -0.0000 </r>
       <r>   10.9913   -0.0000 </r>
       <r>   11.0693   -0.0000 </r>
       <r>   11.0693   -0.0000 </r>
       <r>   13.4289   -0.0000 </r>
       <r>   14.1935    0.0000 </r>
       <r>   14.6091    0.0000 </r>
      </set>
      <set comment="kpoint 7">
       <r>   -2.1884    1.0000 </r>
       <r>    0.8995    1.0000 </r>
       <r>    5.8300    1.0000 </r>
       <r>    5.8300    1.0000 </r>
       <r>    7.4291    1.0003 </r>
       <r>    7.4291    1.0003 </r>
       <r>    8.7421   -0.0000 </r>
       <r>    8.7421   -0.0000 </r>
       <r>   10.5213   -0.0000 </r>
       <r>   10.5213   -0.0000 </r>
       <r>   12.0641   -0.0000 </r>
       <r>   13.6788    0.0000 </r>
       <r>   14.4226    0.0000 </r>
       <r>   14.8542    0.0000 </r>
      </set>
      <set comment="kpoint 8">
       <r>   -1.8763    1.0000 </r>
       <r>    0.3318    1.0000 </r>
       <r>    6.1194    1.0000 </r>
       <r>    6.1194    1.0000 </r>
       <r>    7.6975    1.0312 </r>
       <r>    7.6975    1.0312 </r>
       <r>    8.2176   -0.0352 </r>
       <r>    8.2176   -0.0352 </r>
       <r>   10.0116   -0.0000 </r>
       <r>   10.0116   -0.0000 </r>
       <r>   13.1723   -0.0000 </r>
       <r>   13.9704    0.0000 </r>
       <r>   14.6899    0.0000 </r>
       <r>   15.1406    0.0000 </r>
      </set>
      <set comment="kpoint 9">
       <r>   -1.5205    1.0000 </r>
       <r>   -0.1947    1.0000 </r>
       <r>    6.4497    1.0000 </r>
       <r>    6.4497    1.0000 </r>
       <r>    7.6674    1.0246 </r>
       <r>    7.6674    1.0246 </r>
       <r>    8.0499    0.2260 </r>
       <r>    8.0499    0.2260 </r>
       <r>    9.5598   -0.0000 </r>
       <r>    9.5598   -0.0000 </r>
       <r>   14.2617    0.0000 </r>
       <r>   14.3551    0.0000 </r>
       <r>   14.9956    0.0000 </r>
       <r>   15.4733    0.0000 </r>
      </set>
      <set comment="kpoint 10">
       <r>   -1.1214    1.0000 </r>
       <r>   -0.6793    1.0000 </r>
[...]
       <r>    1.1591    1.0000 </r>
       <r>    1.5986    1.0000 </r>
       <r>    1.5986    1.0000 </r>
       <r>    2.0366    1.0000 </r>
       <r>    6.7136    1.0000 </r>
       <r>    7.1386    1.0000 </r>
       <r>    7.1386    1.0000 </r>
       <r>    7.5629    1.0059 </r>
       <r>   12.7546   -0.0000 </r>
       <r>   13.1614   -0.0000 </r>
       <r>   13.1614   -0.0000 </r>
       <r>   13.5673    0.0000 </r>
       <r>   17.3630    0.0000 </r>
       <r>   17.4507    0.0000 </r>
      </set>
      <set comment="kpoint 545">
       <r>    1.3335    1.0000 </r>
       <r>    1.7724    1.0000 </r>
       <r>    1.7724    1.0000 </r>
       <r>    2.2098    1.0000 </r>
       <r>    6.0511    1.0000 </r>
       <r>    6.4776    1.0000 </r>
       <r>    6.4776    1.0000 </r>
       <r>    6.9034    1.0000 </r>
       <r>   13.7109    0.0000 </r>
       <r>   14.1114    0.0000 </r>
       <r>   14.1114    0.0000 </r>
       <r>   14.5112    0.0000 </r>
       <r>   17.5148    0.0000 </r>
       <r>   17.6042    0.0000 </r>
      </set>
      <set comment="kpoint 546">
       <r>    1.5511    1.0000 </r>
       <r>    1.9892    1.0000 </r>
       <r>    1.9892    1.0000 </r>
       <r>    2.4258    1.0000 </r>
       <r>    5.4222    1.0000 </r>
       <r>    5.8500    1.0000 </r>
       <r>    5.8500    1.0000 </r>
       <r>    6.2772    1.0000 </r>
       <r>   14.7014    0.0000 </r>
       <r>   15.0927    0.0000 </r>
       <r>   15.0927    0.0000 </r>
       <r>   15.4837    0.0000 </r>
       <r>   17.7043    0.0000 </r>
       <r>   17.7953    0.0000 </r>
      </set>
      <set comment="kpoint 547">
       <r>    1.8117    1.0000 </r>
       <r>    2.2489    1.0000 </r>
       <r>    2.2489    1.0000 </r>
       <r>    2.6841    1.0000 </r>
       <r>    4.8309    1.0000 </r>
       <r>    5.2595    1.0000 </r>
       <r>    5.2595    1.0000 </r>
       <r>    5.6880    1.0000 </r>
       <r>   15.7163    0.0000 </r>
       <r>   16.0922    0.0000 </r>
       <r>   16.0922    0.0000 </r>
       <r>   16.4698    0.0000 </r>
       <r>   17.9481    0.0000 </r>
       <r>   18.0229    0.0000 </r>
      </set>
      <set comment="kpoint 548">
       <r>    2.1151    1.0000 </r>
       <r>    2.5508    1.0000 </r>
       <r>    2.5508    1.0000 </r>
       <r>    2.9833    1.0000 </r>
       <r>    4.2804    1.0000 </r>
       <r>    4.7086    1.0000 </r>
       <r>    4.7086    1.0000 </r>
       <r>    5.1377    1.0000 </r>
       <r>   16.7422    0.0000 </r>
       <r>   17.0899    0.0000 </r>
       <r>   17.0900    0.0000 </r>
       <r>   17.4461    0.0000 </r>
       <r>   18.2099    0.0000 </r>
       <r>   18.2831    0.0000 </r>
      </set>
      <set comment="kpoint 549">
       <r>    2.4605    1.0000 </r>
       <r>    2.8935    1.0000 </r>
       <r>    2.8935    1.0000 </r>
       <r>    3.3127    1.0000 </r>
       <r>    3.7824    1.0000 </r>
       <r>    4.1995    1.0000 </r>
       <r>    4.1995    1.0000 </r>
       <r>    4.6281    1.0000 </r>
       <r>   17.7564    0.0000 </r>
       <r>   18.0393    0.0000 </r>
       <r>   18.0435    0.0000 </r>
       <r>   18.3701    0.0000 </r>
       <r>   18.5337    0.0000 </r>
       <r>   18.5692    0.0000 </r>
      </set>
      <set comment="kpoint 550">
       <r>    2.8464    1.0000 </r>
       <r>    3.2627    1.0000 </r>
       <r>    3.2665    1.0000 </r>
       <r>    3.2665    1.0000 </r>
       <r>    3.7431    1.0000 </r>
       <r>    3.7431    1.0000 </r>
       <r>    3.7469    1.0000 </r>
       <r>    4.1609    1.0000 </r>
       <r>   18.7170    0.0000 </r>
       <r>   18.7751    0.0000 </r>
       <r>   18.7794    0.0000 </r>
       <r>   18.8356    0.0000 </r>
       <r>   18.8451    0.0000 </r>
       <r>   18.8707    0.0000 </r>
      </set>
     </set>
    </set>
   </array>
  </eigenvalues>
  <separator name="orbital magnetization" >
   <v name="MAGDIPOLOUT">      0.00000000      0.00000000      0.00000000</v>
  </separator>
  <dos>
   <i name="efermi">      7.98077384 </i>
   <total>
    <array>
     <dimension dim="1">gridpoints</dimension>
     <dimension dim="2">spin</dimension>
     <field>energy</field>
     <field>total</field>
     <field>integrated</field>
     <set>
      <set comment="spin 1">
       <r>    -5.1287     0.0000     0.0000 </r>
       <r>    -5.0421     0.0000     0.0000 </r>
       <r>    -4.9554     0.0000     0.0000 </r>
       <r>    -4.8688     0.0000     0.0000 </r>
       <r>    -4.7821    -0.0000    -0.0000 </r>
       <r>    -4.6954    -0.0000    -0.0000 </r>
       <r>    -4.6088    -0.0000    -0.0000 </r>
       <r>    -4.5221    -0.0000    -0.0000 </r>
       <r>    -4.4354    -0.0000    -0.0000 </r>
       <r>    -4.3488    -0.0000    -0.0000 </r>
       <r>    -4.2621    -0.0000    -0.0000 </r>
       <r>    -4.1754    -0.0000    -0.0000 </r>
       <r>    -4.0888    -0.0000    -0.0000 </r>
       <r>    -4.0021    -0.0000    -0.0000 </r>
       <r>    -3.9154    -0.0000    -0.0000 </r>
       <r>    -3.8288    -0.0000    -0.0000 </r>
       <r>    -3.7421    -0.0000    -0.0000 </r>
       <r>    -3.6554    -0.0000    -0.0000 </r>
       <r>    -3.5688    -0.0002    -0.0000 </r>
       <r>    -3.4821    -0.0011    -0.0001 </r>
       <r>    -3.3954    -0.0035    -0.0004 </r>
       <r>    -3.3088    -0.0054    -0.0009 </r>
       <r>    -3.2221     0.0026    -0.0007 </r>
       <r>    -3.1355     0.0348     0.0023 </r>
       <r>    -3.0488     0.0930     0.0104 </r>
       <r>    -2.9621     0.1600     0.0243 </r>
       <r>    -2.8755     0.2170     0.0431 </r>
       <r>    -2.7888     0.2598     0.0656 </r>
       <r>    -2.7021     0.2943     0.0911 </r>
       <r>    -2.6155     0.3241     0.1192 </r>
       <r>    -2.5288     0.3511     0.1496 </r>
       <r>    -2.4421     0.3783     0.1824 </r>
       <r>    -2.3555     0.4028     0.2173 </r>
       <r>    -2.2688     0.4224     0.2539 </r>
       <r>    -2.1821     0.4464     0.2926 </r>
       <r>    -2.0955     0.4719     0.3335 </r>
       <r>    -2.0088     0.4869     0.3757 </r>
       <r>    -1.9221     0.5004     0.4191 </r>
       <r>    -1.8355     0.5270     0.4647 </r>
       <r>    -1.7488     0.5543     0.5128 </r>
       <r>    -1.6622     0.5602     0.5613 </r>
       <r>    -1.5755     0.5634     0.6101 </r>
       <r>    -1.4888     0.5949     0.6617 </r>
       <r>    -1.4022     0.6292     0.7162 </r>
       <r>    -1.3155     0.6320     0.7710 </r>
       <r>    -1.2288     0.6269     0.8253 </r>
       <r>    -1.1422     0.6456     0.8813 </r>
       <r>    -1.0555     0.6792     0.9401 </r>
       <r>    -0.9688     0.7053     1.0013 </r>
       <r>    -0.8822     0.7131     1.0631 </r>
       <r>    -0.7955     0.7022     1.1239 </r>
       <r>    -0.7088     0.6988     1.1845 </r>
       <r>    -0.6222     0.7398     1.2486 </r>
       <r>    -0.5355     0.7964     1.3176 </r>
       <r>    -0.4488     0.7988     1.3868 </r>
       <r>    -0.3622     0.7579     1.4525 </r>
       <r>    -0.2755     0.7540     1.5179 </r>
       <r>    -0.1888     0.8060     1.5877 </r>
       <r>    -0.1022     0.8492     1.6613 </r>
       <r>    -0.0155     0.8546     1.7354 </r>
       <r>     0.0711     0.8534     1.8093 </r>
       <r>     0.1578     0.8530     1.8833 </r>
       <r>     0.2445     0.8474     1.9567 </r>
       <r>     0.3311     0.8534     2.0307 </r>
       <r>     0.4178     0.8886     2.1077 </r>
       <r>     0.5045     0.9422     2.1893 </r>
       <r>     0.5911     0.9683     2.2733 </r>
       <r>     0.6778     0.9396     2.3547 </r>
       <r>     0.7645     0.8901     2.4318 </r>
       <r>     0.8511     0.8834     2.5084 </r>
       <r>     0.9378     0.9526     2.5909 </r>
       <r>     1.0245     1.0395     2.6810 </r>
       <r>     1.1111     1.0484     2.7719 </r>
       <r>     1.1978     0.9889     2.8576 </r>
       <r>     1.2845     0.9595     2.9408 </r>
       <r>     1.3711     0.9931     3.0268 </r>
       <r>     1.4578     1.0287     3.1160 </r>
       <r>     1.5444     1.0337     3.2056 </r>
       <r>     1.6311     1.0429     3.2959 </r>
       <r>     1.7178     1.0769     3.3893 </r>
       <r>     1.8044     1.1148     3.4859 </r>
       <r>     1.8911     1.1215     3.5831 </r>
       <r>     1.9778     1.0786     3.6766 </r>
       <r>     2.0644     1.0237     3.7653 </r>
       <r>     2.1511     1.0384     3.8553 </r>
       <r>     2.2378     1.1323     3.9534 </r>
       <r>     2.3244     1.2053     4.0579 </r>
       <r>     2.4111     1.2113     4.1628 </r>
       <r>     2.4978     1.1890     4.2659 </r>
       <r>     2.5844     1.1402     4.3647 </r>
       <r>     2.6711     1.0863     4.4588 </r>
       <r>     2.7578     1.1101     4.5550 </r>
       <r>     2.8444     1.2092     4.6598 </r>
       <r>     2.9311     1.2730     4.7702 </r>
       <r>     3.0178     1.2570     4.8791 </r>
       <r>     3.1044     1.2277     4.9855 </r>
       <r>     3.1911     1.2262     5.0918 </r>
       <r>     3.2777     1.2449     5.1997 </r>
       <r>     3.3644     1.2776     5.3104 </r>
       <r>     3.4511     1.2839     5.4217 </r>
       <r>     3.5377     1.2333     5.5285 </r>
       <r>     3.6244     1.1951     5.6321 </r>
       <r>     3.7111     1.2563     5.7410 </r>
       <r>     3.7977     1.3725     5.8599 </r>
       <r>     3.8844     1.4181     5.9828 </r>
       <r>     3.9711     1.3624     6.1009 </r>
       <r>     4.0577     1.2791     6.2118 </r>
       <r>     4.1444     1.2384     6.3191 </r>
       <r>     4.2311     1.2614     6.4284 </r>
       <r>     4.3177     1.3419     6.5447 </r>
       <r>     4.4044     1.4468     6.6701 </r>
       <r>     4.4911     1.4983     6.7999 </r>
       <r>     4.5777     1.4540     6.9259 </r>
       <r>     4.6644     1.3787     7.0454 </r>
       <r>     4.7511     1.3527     7.1627 </r>
       <r>     4.8377     1.3882     7.2830 </r>
       <r>     4.9244     1.4658     7.4100 </r>
       <r>     5.0110     1.5507     7.5444 </r>
       <r>     5.0977     1.5892     7.6821 </r>
       <r>     5.1844     1.5694     7.8181 </r>
       <r>     5.2710     1.5245     7.9502 </r>
       <r>     5.3577     1.4762     8.0782 </r>
       <r>     5.4444     1.4643     8.2051 </r>
       <r>     5.5310     1.5162     8.3365 </r>
       <r>     5.6177     1.5605     8.4717 </r>
       <r>     5.7044     1.5241     8.6038 </r>
       <r>     5.7910     1.4436     8.7289 </r>
       <r>     5.8777     1.3847     8.8489 </r>
       <r>     5.9644     1.3599     8.9668 </r>
       <r>     6.0510     1.3773     9.0861 </r>
       <r>     6.1377     1.4338     9.2104 </r>
       <r>     6.2244     1.4562     9.3366 </r>
       <r>     6.3110     1.4182     9.4595 </r>
       <r>     6.3977     1.3843     9.5795 </r>
       <r>     6.4843     1.3702     9.6982 </r>
       <r>     6.5710     1.3853     9.8183 </r>
       <r>     6.6577     1.4839     9.9469 </r>
       <r>     6.7443     1.6093    10.0864 </r>
       <r>     6.8310     1.6239    10.2271 </r>
       <r>     6.9177     1.5327    10.3599 </r>
       <r>     7.0043     1.4705    10.4874 </r>
       <r>     7.0910     1.5005    10.6174 </r>
       <r>     7.1777     1.5670    10.7532 </r>
       <r>     7.2643     1.6104    10.8928 </r>
       <r>     7.3510     1.6031    11.0317 </r>
       <r>     7.4377     1.5371    11.1649 </r>
       <r>     7.5243     1.4805    11.2932 </r>
       <r>     7.6110     1.5309    11.4259 </r>
       <r>     7.6977     1.6402    11.5680 </r>
       <r>     7.7843     1.6536    11.7114 </r>
       <r>     7.8710     1.5393    11.8448 </r>
       <r>     7.9577     1.4192    11.9678 </r>
       <r>     8.0443     1.4202    12.0908 </r>
       <r>     8.1310     1.5795    12.2277 </r>
       <r>     8.2176     1.8080    12.3844 </r>
       <r>     8.3043     1.9321    12.5519 </r>
       <r>     8.3910     1.8641    12.7134 </r>
       <r>     8.4776     1.6946    12.8603 </r>
       <r>     8.5643     1.5674    12.9961 </r>
       <r>     8.6510     1.5485    13.1303 </r>
       <r>     8.7376     1.6122    13.2700 </r>
       <r>     8.8243     1.6771    13.4154 </r>
       <r>     8.9110     1.6937    13.5622 </r>
       <r>     8.9976     1.6879    13.7084 </r>
       <r>     9.0843     1.6808    13.8541 </r>
       <r>     9.1710     1.6801    13.9997 </r>
       <r>     9.2576     1.7273    14.1494 </r>
       <r>     9.3443     1.8187    14.3070 </r>
       <r>     9.4310     1.8660    14.4687 </r>
       <r>     9.5176     1.8176    14.6263 </r>
       <r>     9.6043     1.7202    14.7754 </r>
       <r>     9.6910     1.6321    14.9168 </r>
       <r>     9.7776     1.5769    15.0535 </r>
       <r>     9.8643     1.6035    15.1924 </r>
       <r>     9.9509     1.7515    15.3442 </r>
       <r>    10.0376     1.9436    15.5127 </r>
       <r>    10.1243     2.0591    15.6911 </r>
       <r>    10.2109     2.0135    15.8656 </r>
       <r>    10.2976     1.7767    16.0196 </r>
       <r>    10.3843     1.5368    16.1528 </r>
       <r>    10.4709     1.5963    16.2911 </r>
       <r>    10.5576     1.8998    16.4558 </r>
       <r>    10.6443     2.0707    16.6352 </r>
       <r>    10.7309     1.9913    16.8078 </r>
       <r>    10.8176     1.8587    16.9689 </r>
       <r>    10.9043     1.7696    17.1222 </r>
       <r>    10.9909     1.7205    17.2714 </r>
       <r>    11.0776     1.7739    17.4251 </r>
       <r>    11.1643     1.9036    17.5901 </r>
       <r>    11.2509     1.9655    17.7604 </r>
       <r>    11.3376     1.9577    17.9301 </r>
       <r>    11.4242     2.0050    18.1038 </r>
       <r>    11.5109     2.0710    18.2833 </r>
       <r>    11.5976     2.0234    18.4587 </r>
       <r>    11.6842     1.8946    18.6229 </r>
       <r>    11.7709     1.8197    18.7806 </r>
       <r>    11.8576     1.8504    18.9409 </r>
       <r>    11.9442     1.9267    19.1079 </r>
       <r>    12.0309     1.9600    19.2778 </r>
       <r>    12.1176     1.9409    19.4460 </r>
       <r>    12.2042     1.9520    19.6151 </r>
       <r>    12.2909     2.0599    19.7937 </r>
       <r>    12.3776     2.2085    19.9851 </r>
       <r>    12.4642     2.2474    20.1798 </r>
       <r>    12.5509     2.1117    20.3628 </r>
       <r>    12.6376     1.9296    20.5301 </r>
       <r>    12.7242     1.8813    20.6931 </r>
       <r>    12.8109     1.9886    20.8655 </r>
       <r>    12.8976     2.1031    21.0477 </r>
       <r>    12.9842     2.1246    21.2318 </r>
       <r>    13.0709     2.1295    21.4164 </r>
       <r>    13.1575     2.1831    21.6056 </r>
       <r>    13.2442     2.2182    21.7978 </r>
       <r>    13.3309     2.2076    21.9891 </r>
       <r>    13.4175     2.2083    22.1805 </r>
       <r>    13.5042     2.2348    22.3742 </r>
       <r>    13.5909     2.2911    22.5728 </r>
       <r>    13.6775     2.4048    22.7812 </r>
       <r>    13.7642     2.5035    22.9981 </r>
       <r>    13.8509     2.4599    23.2113 </r>
       <r>    13.9375     2.2878    23.4096 </r>
       <r>    14.0242     2.1398    23.5950 </r>
       <r>    14.1109     2.1344    23.7800 </r>
       <r>    14.1975     2.2323    23.9735 </r>
       <r>    14.2842     2.2926    24.1722 </r>
       <r>    14.3709     2.2426    24.3665 </r>
       <r>    14.4575     2.1346    24.5515 </r>
       <r>    14.5442     2.0503    24.7292 </r>
       <r>    14.6309     2.0116    24.9035 </r>
       <r>    14.7175     1.9998    25.0768 </r>
       <r>    14.8042     1.9994    25.2501 </r>
       <r>    14.8908     2.0068    25.4240 </r>
       <r>    14.9775     2.0199    25.5991 </r>
       <r>    15.0642     1.9713    25.7699 </r>
       <r>    15.1508     1.7706    25.9234 </r>
       <r>    15.2375     1.4932    26.0528 </r>
       <r>    15.3242     1.3449    26.1694 </r>
       <r>    15.4108     1.4040    26.2910 </r>
       <r>    15.4975     1.5417    26.4246 </r>
       <r>    15.5842     1.5694    26.5607 </r>
       <r>    15.6708     1.4169    26.6835 </r>
       <r>    15.7575     1.1766    26.7854 </r>
       <r>    15.8442     0.9998    26.8721 </r>
       <r>    15.9308     0.9467    26.9541 </r>
       <r>    16.0175     0.9330    27.0350 </r>
       <r>    16.1042     0.8704    27.1104 </r>
       <r>    16.1908     0.7925    27.1791 </r>
       <r>    16.2775     0.7600    27.2450 </r>
       <r>    16.3641     0.7553    27.3104 </r>
       <r>    16.4508     0.7355    27.3742 </r>
       <r>    16.5375     0.6837    27.4334 </r>
       <r>    16.6241     0.5964    27.4851 </r>
       <r>    16.7108     0.5047    27.5288 </r>
       <r>    16.7975     0.4598    27.5687 </r>
       <r>    16.8841     0.4475    27.6075 </r>
       <r>    16.9708     0.4162    27.6435 </r>
       <r>    17.0575     0.3832    27.6768 </r>
       <r>    17.1441     0.3920    27.7107 </r>
       <r>    17.2308     0.4148    27.7467 </r>
       <r>    17.3175     0.3977    27.7811 </r>
       <r>    17.4041     0.3465    27.8112 </r>
       <r>    17.4908     0.2971    27.8369 </r>
       <r>    17.5775     0.2511    27.8587 </r>
       <r>    17.6641     0.2042    27.8764 </r>
       <r>    17.7508     0.1798    27.8920 </r>
       <r>    17.8375     0.1783    27.9074 </r>
       <r>    17.9241     0.1666    27.9218 </r>
       <r>    18.0108     0.1415    27.9341 </r>
       <r>    18.0974     0.1280    27.9452 </r>
       <r>    18.1841     0.1209    27.9557 </r>
       <r>    18.2708     0.1018    27.9645 </r>
       <r>    18.3574     0.0822    27.9716 </r>
       <r>    18.4441     0.0741    27.9781 </r>
       <r>    18.5308     0.0633    27.9835 </r>
       <r>    18.6174     0.0442    27.9874 </r>
       <r>    18.7041     0.0343    27.9903 </r>
       <r>    18.7908     0.0394    27.9938 </r>
       <r>    18.8774     0.0408    27.9973 </r>
       <r>    18.9641     0.0266    27.9996 </r>
       <r>    19.0508     0.0084    28.0003 </r>
       <r>    19.1374    -0.0008    28.0003 </r>
       <r>    19.2241    -0.0019    28.0001 </r>
       <r>    19.3108    -0.0008    28.0000 </r>
       <r>    19.3974    -0.0002    28.0000 </r>
       <r>    19.4841    -0.0000    28.0000 </r>
       <r>    19.5707    -0.0000    28.0000 </r>
       <r>    19.6574    -0.0000    28.0000 </r>
       <r>    19.7441    -0.0000    28.0000 </r>
       <r>    19.8307    -0.0000    28.0000 </r>
       <r>    19.9174    -0.0000    28.0000 </r>
       <r>    20.0041    -0.0000    28.0000 </r>
       <r>    20.0907    -0.0000    28.0000 </r>
       <r>    20.1774    -0.0000    28.0000 </r>
       <r>    20.2641     0.0000    28.0000 </r>
       <r>    20.3507     0.0000    28.0000 </r>
       <r>    20.4374     0.0000    28.0000 </r>
       <r>    20.5241     0.0000    28.0000 </r>
       <r>    20.6107     0.0000    28.0000 </r>
       <r>    20.6974     0.0000    28.0000 </r>
       <r>    20.7841     0.0000    28.0000 </r>
       <r>    20.8707     0.0000    28.0000 </r>
      </set>
     </set>
    </array>
   </total>
  </dos>
 </calculation>
 <structure name="finalpos" >
  <crystal>
   <varray name="basis" >
    <v>       4.05907411       0.00000000       0.00000000 </v>
    <v>      -0.00000000       4.03892969       0.00000000 </v>
    <v>       0.00000000       0.00000000       4.03892969 </v>
   </varray>
   <i name="volume">     66.21548538 </i>
   <varray name="rec_basis" >
    <v>       0.24636160       0.00000000      -0.00000000 </v>
    <v>       0.00000000       0.24759035      -0.00000000 </v>
    <v>       0.00000000      -0.00000000       0.24759035 </v>
   </varray>
  </crystal>
  <varray name="positions" >
   <v>       0.00000000       0.00000000       0.00000000 </v>
   <v>       0.00000000       0.50000000       0.50000000 </v>
   <v>       0.50000000       0.00000000       0.50000000 </v>
   <v>       0.50000000       0.50000000       0.00000000 </v>
  </varray>
 </structure>
</modeling>
