ITEM: TIMESTEP
0
ITEM: NUMBER OF ATOMS
4
ITEM: BOX BOUNDS xy xz yz pp pp pp
0.0000000000000000e+00 4.0369359481000000e+00 0.0000000000000000e+00
-4.0369359500000000e-02 4.0369359481000000e+00 0.0000000000000000e+00
0.0000000000000000e+00 4.0367340963000000e+00 -4.0369359500000000e-02
ITEM: ATOMS id type xs ys zs fx fy fz
1 1 0 0 0 2.36873e-10 3.43134e-10 2.53061e-10
2 1 0 0.5 0.5 2.36873e-10 -3.43134e-10 -2.53061e-10
3 1 0.5 0.5 0 -2.36873e-10 -1.30776e-10 2.35738e-10
4 1 0.5 1.25095e-11 0.5 -2.36873e-10 1.30776e-10 -2.35738e-10
ITEM: TIMESTEP
2
ITEM: NUMBER OF ATOMS
4
ITEM: BOX BOUNDS xy xz yz pp pp pp
0.0000000000000000e+00 4.0369359481000000e+00 0.0000000000000000e+00
-4.0369359500000000e-02 4.0369359481000000e+00 0.0000000000000000e+00
0.0000000000000000e+00 4.0367340963000000e+00 -4.0369359500000000e-02
ITEM: ATOMS id type xs ys zs fx fy fz
1 1 6.20842e-12 1.24394e-11 6.18516e-12 -5.95218e-13 3.00239e-13 3.09226e-13
2 1 6.20837e-12 0.5 0.5 -5.93761e-13 -3.01026e-13 -3.09723e-13
3 1 0.5 0.5 6.1859e-12 5.95274e-13 -2.55912e-13 2.78652e-13
4 1 0.5 1.24412e-11 0.5 5.9372e-13 2.56673e-13 -2.78144e-13
