ITEM: TIMESTEP
0
ITEM: NUMBER OF ATOMS
4
ITEM: BOX BOUNDS xy xz yz pp pp pp
-8.0738719000000000e-02 4.0369359481000000e+00 0.0000000000000000e+00
0.0000000000000000e+00 4.0369359481000000e+00 -8.0738719000000000e-02
0.0000000000000000e+00 4.0361284802000004e+00 0.0000000000000000e+00
ITEM: ATOMS id type xs ys zs fx fy fz
1 1 0 0 0 2.37119e-10 2.36786e-10 1.74499e-11
4 1 0.5 0 0.5 -2.37119e-10 2.36786e-10 -1.74499e-11
3 1 0.5 0.5 0 -2.37119e-10 -2.36786e-10 -1.74502e-11
2 1 0 0.5 0.5 2.37119e-10 -2.36786e-10 1.74502e-11
ITEM: TIMESTEP
1
ITEM: NUMBER OF ATOMS
4
ITEM: BOX BOUNDS xy xz yz pp pp pp
-8.0738719000000000e-02 4.0369359481000000e+00 0.0000000000000000e+00
0.0000000000000000e+00 4.0369359481000000e+00 -8.0738719000000000e-02
0.0000000000000000e+00 4.0361284802000004e+00 0.0000000000000000e+00
ITEM: ATOMS id type xs ys zs fx fy fz
1 1 6.18254e-12 6.16478e-12 4.54404e-13 -5.38444e-13 1.0722e-12 -7.26421e-12
4 1 0.5 6.16478e-12 0.5 5.38514e-13 1.07221e-12 7.26415e-12
2 1 6.18254e-12 0.5 0.5 -5.38375e-13 -1.07207e-12 -7.26531e-12
3 1 0.5 0.5 1 5.38306e-13 -1.0723e-12 7.26554e-12
