
6 atoms
1 atom types
   0.0000000000    2.8637816768 xlo xhi
   0.0000000000    2.8637816768 ylo yhi
   0.0000000000   24.2999933218 zlo zhi
  -0.0000000000    0.0100000000    0.0000000000 xy xz yz

Atoms # atomic

     1      1    2.8725316768    0.0000000000   21.2624941566
     2      1    1.4414741717    1.4318908384   23.2874936000
     3      1    2.8708650101    0.0000000000   17.2124952696
     4      1    1.4398075050    1.4318908384   19.2374947131
     5      1    2.8691983434    0.0000000000   13.1624963826
     6      1    1.4381408384    1.4318908384   15.1874958261
