ITEM: TIMESTEP
0
ITEM: NUMBER OF ATOMS
6
ITEM: BOX BOUNDS xy xz yz pp pp pp
0.0000000000000000e+00 2.8737816767999997e+00 -0.0000000000000000e+00
0.0000000000000000e+00 2.8637816768000000e+00 1.0000000000000000e-02
0.0000000000000000e+00 2.4299993321799999e+01 0.0000000000000000e+00
ITEM: ATOMS id type xs ys zs fx fy fz
5 1 1 0 0.541667 0.0016344 -5.55112e-17 -0.880797
6 1 0.5 0.5 0.625 -0.000677858 0 0.880796
3 1 1 0 0.708333 -3.41394e-15 1.38778e-16 -4.7129e-14
4 1 0.5 0.5 0.791667 1.5437e-10 -9.71445e-17 1.17615e-10
1 1 1 0 0.875 0.000677858 -1.38778e-17 -0.880796
2 1 0.5 0.5 0.958333 -0.0016344 0 0.880797
