
4 atoms
1 atom types
   0.0000000000    3.9685000841 xlo xhi
   0.0000000000    3.9685000841 ylo yhi
   0.0000000000    3.9685000841 zlo zhi
  -0.0000000000   -0.0000000000   -0.0000000000 xy xz yz

Atoms # atomic

     1      1    0.0000000000    0.0000000000    0.0000000000
     2      1    0.0000000000    1.9842500421    1.9842500421
     3      1    1.9842500421    1.9842500421    0.0000000000
     4      1    1.9842500421    0.0000000000    1.9842500421
