ITEM: TIMESTEP
0
ITEM: NUMBER OF ATOMS
4
ITEM: BOX BOUNDS xy xz yz pp pp pp
0.0000000000000000e+00 3.9685000841000000e+00 -0.0000000000000000e+00
0.0000000000000000e+00 3.9685000841000000e+00 -0.0000000000000000e+00
0.0000000000000000e+00 3.9685000841000000e+00 -0.0000000000000000e+00
ITEM: ATOMS id type xs ys zs fx fy fz
1 1 0 0 0 2.84547e-10 2.84546e-10 2.84547e-10
2 1 0 0.5 0.5 2.84547e-10 -2.84546e-10 -2.84547e-10
3 1 0.5 0.5 0 -2.84547e-10 -2.84546e-10 2.84547e-10
4 1 0.5 0 0.5 -2.84547e-10 2.84546e-10 -2.84547e-10
ITEM: TIMESTEP
1
ITEM: NUMBER OF ATOMS
4
ITEM: BOX BOUNDS xy xz yz pp pp pp
0.0000000000000000e+00 3.9685000841000000e+00 -0.0000000000000000e+00
0.0000000000000000e+00 3.9685000841000000e+00 -0.0000000000000000e+00
0.0000000000000000e+00 3.9685000841000000e+00 -0.0000000000000000e+00
ITEM: ATOMS id type xs ys zs fx fy fz
1 1 6.29959e-12 6.29958e-12 6.29961e-12 -4.63518e-15 -5.58455e-15 -4.15955e-15
2 1 6.29959e-12 0.5 0.5 -5.66214e-15 4.90326e-15 4.31169e-15
3 1 0.5 0.5 6.2996e-12 4.85723e-15 4.80481e-15 -5.19331e-15
4 1 0.5 6.29958e-12 0.5 5.52336e-15 -4.18146e-15 4.99853e-15
