 running   14 mpi-ranks, with    2 threads/rank, on    1 nodes
 distrk:  each k-point on   14 cores,    1 groups
 distr:  one band on    1 cores,   14 groups
 vasp.6.4.2 20Jul23 (build Apr 22 2024 22:35:45) complex                         
 POSCAR found type information on POSCAR Al
 POSCAR found :  1 types and       4 ions
 scaLAPACK will be used
 -----------------------------------------------------------------------------
|                                                                             |
|               ----> ADVICE to this user running VASP <----                  |
|                                                                             |
|     You have a (more or less) 'small supercell' and for smaller cells       |
|     it is recommended to use the reciprocal-space projection scheme!        |
|     The real-space optimization is not efficient for small cells and it     |
|     is also less accurate ...                                               |
|     Therefore, set LREAL=.FALSE. in the INCAR file.                         |
|                                                                             |
 -----------------------------------------------------------------------------

 LDA part: xc-table for Pade appr. of Perdew
 POSCAR, INCAR and KPOINTS ok, starting setup
 FFT: planning ... GRIDC
 FFT: planning ... GRID_SOFT
 FFT: planning ... GRID
 WAVECAR not read
 entering main loop
       N       E                     dE             d eps       ncg     rms          rms(c)
DAV:   1    -0.225976197566E+01   -0.22598E+01   -0.38260E+03 30912   0.521E+02
DAV:   2    -0.150043287837E+02   -0.12745E+02   -0.12395E+02 45150   0.480E+01
DAV:   3    -0.150763093347E+02   -0.71981E-01   -0.71701E-01 40572   0.489E+00
DAV:   4    -0.150764752373E+02   -0.16590E-03   -0.16589E-03 50820   0.227E-01
DAV:   5    -0.150764753443E+02   -0.10703E-06   -0.10645E-06 41468   0.423E-03    0.261E+00
RMM:   6    -0.150244017208E+02    0.52074E-01   -0.53903E-03 30800   0.427E-01    0.153E+00
RMM:   7    -0.149863046193E+02    0.38097E-01   -0.16471E-02 30800   0.714E-01    0.225E-01
RMM:   8    -0.149862746698E+02    0.29949E-04   -0.57864E-04 30800   0.160E-01    0.279E-02
RMM:   9    -0.149862803978E+02   -0.57280E-05   -0.99030E-05 30800   0.690E-02    0.233E-02
RMM:  10    -0.149862813957E+02   -0.99786E-06   -0.22195E-05 30800   0.332E-02    0.225E-02
RMM:  11    -0.149862769433E+02    0.44523E-05   -0.43796E-06 30326   0.128E-02    0.525E-03
RMM:  12    -0.149862768439E+02    0.99435E-07   -0.11723E-06 22892   0.812E-03
   1 F= -.14986277E+02 E0= -.14986999E+02  d E =-.149863E+02
 curvature:   0.00 expect dE= 0.000E+00 dE for cont linesearch  0.000E+00
 trial: gam= 0.00000 g(F)=  0.332E-62 g(S)=  0.000E+00 ort = 0.000E+00 (trialstep = 0.100E+01)
 search vector abs. value=  0.100E-09
 reached required accuracy - stopping structural energy minimisation
