
4 atoms
1 atom types
   0.0000000000    3.4926760724 xlo xhi
   0.0000000000    3.4926760724 ylo yhi
   0.0000000000    3.4926760724 zlo zhi
   0.0000000000   -0.0000000000   -0.0000000000 xy xz yz

Atoms # atomic

     1      1    0.0000000000    0.0000000000    0.0000000000
     2      1    0.0000000000    1.7463380362    1.7463380362
     3      1    1.7463380362    1.7463380362    0.0000000000
     4      1    1.7463380362    0.0000000000    1.7463380362
