ITEM: TIMESTEP
0
ITEM: NUMBER OF ATOMS
4
ITEM: BOX BOUNDS xy xz yz pp pp pp
0.0000000000000000e+00 3.4926760724000001e+00 0.0000000000000000e+00
0.0000000000000000e+00 3.4926760724000001e+00 -0.0000000000000000e+00
0.0000000000000000e+00 3.4926760724000001e+00 -0.0000000000000000e+00
ITEM: ATOMS id type xs ys zs fx fy fz
1 1 0 0 0 0 -5.55112e-16 -1.9984e-15
4 1 0.5 0 0.5 -3.60822e-16 -5.09141e-16 -1.13798e-15
3 1 0.5 0.5 0 -1.94289e-16 -5.13478e-16 -2.02963e-15
2 1 0 0.5 0.5 0 -1.11022e-16 -1.9984e-15
ITEM: TIMESTEP
1
ITEM: NUMBER OF ATOMS
4
ITEM: BOX BOUNDS xy xz yz pp pp pp
0.0000000000000000e+00 3.4926760724000001e+00 0.0000000000000000e+00
0.0000000000000000e+00 3.4926760724000001e+00 -0.0000000000000000e+00
0.0000000000000000e+00 3.4926760724000001e+00 -0.0000000000000000e+00
ITEM: ATOMS id type xs ys zs fx fy fz
1 1 0 0 0 0 -5.55112e-16 -1.9984e-15
4 1 0.5 0 0.5 -3.60822e-16 -5.09141e-16 -1.13798e-15
3 1 0.5 0.5 0 -1.94289e-16 -5.13478e-16 -2.02963e-15
2 1 0 0.5 0.5 0 -1.11022e-16 -1.9984e-15
