 vasp.5.4.4.18Apr17-6-g9f103f2a35 (build Nov 07 2022 11:18:25) complex          
  
 executed on             LinuxIFC date 2024.05.28  10:01:52
 running on   32 total cores
 distrk:  each k-point on   32 cores,    1 groups
 distr:  one band on NCORES_PER_BAND=   1 cores,   32 groups


--------------------------------------------------------------------------------------------------------


 INCAR:
 POTCAR:    PAW_PBE Al 04Jan2001                  

 ----------------------------------------------------------------------------- 
|                                                                             |
|           W    W    AA    RRRRR   N    N  II  N    N   GGGG   !!!           |
|           W    W   A  A   R    R  NN   N  II  NN   N  G    G  !!!           |
|           W    W  A    A  R    R  N N  N  II  N N  N  G       !!!           |
|           W WW W  AAAAAA  RRRRR   N  N N  II  N  N N  G  GGG   !            |
|           WW  WW  A    A  R   R   N   NN  II  N   NN  G    G                |
|           W    W  A    A  R    R  N    N  II  N    N   GGGG   !!!           |
|                                                                             |
|      For optimal performance we recommend to set                            |
|        NCORE= 4 - approx SQRT( number of cores)                             |
|      NCORE specifies how many cores store one orbital (NPAR=cpu/NCORE).     |
|      This setting can  greatly improve the performance of VASP for DFT.     |
|      The default,   NCORE=1            might be grossly inefficient         |
|      on modern multi-core architectures or massively parallel machines.     |
|      Do your own testing !!!!                                               |
|      Unfortunately you need to use the default for GW and RPA calculations. |
|      (for HF NCORE is supported but not extensively tested yet)             |
|                                                                             |
 ----------------------------------------------------------------------------- 

 POTCAR:    PAW_PBE Al 04Jan2001                  
   SHA256 =  17880443556af62b473fe41b62a467bd001ad55d2cabe504a3f22e34d4e9db96 Al
   COPYR  = (c) Copyright 04Jan2001 Georg Kresse                                
   COPYR  = This file is part of the software VASP. Any use, copying, and all ot
   COPYR  = If you do not have a valid VASP license, you may not use, copy or di
   VRHFIN =Al: s2p1                                                             
   LEXCH  = PE                                                                  
   EATOM  =    53.5387 eV,    3.9350 Ry                                         
                                                                                
   TITEL  = PAW_PBE Al 04Jan2001                                                
   LULTRA =        F    use ultrasoft PP ?                                      
   IUNSCR =        1    unscreen: 0-lin 1-nonlin 2-no                           
   RPACOR =    1.500    partial core radius                                     
   POMASS =   26.981; ZVAL   =    3.000    mass and valenz                      
   RCORE  =    1.900    outmost cutoff radius                                   
   RWIGS  =    2.650; RWIGS  =    1.402    wigner-seitz radius (au A)           
   ENMAX  =  240.300; ENMIN  =  180.225 eV                                      
   ICORE  =        2    local potential                                         
   LCOR   =        T    correct aug charges                                     
   LPAW   =        T    paw PP                                                  
   EAUG   =  291.052                                                            
   DEXC   =    0.000                                                            
   RMAX   =    1.939    core radius for proj-oper                               
   RAUG   =    1.300    factor for augmentation sphere                          
   RDEP   =    1.966    radius for radial grids                                 
   RDEPT  =    1.856    core radius for aug-charge                              
                                                                                
   Atomic configuration                                                         
    6 entries                                                                   
     n  l   j            E        occ.                                          
     1  0  0.50     -1511.1048   2.0000                                         
     2  0  0.50      -108.1629   2.0000                                         
     2  1  1.50       -69.6402   6.0000                                         
     3  0  0.50        -7.7528   2.0000                                         
     3  1  1.50        -2.7121   1.0000                                         
     3  2  2.50        -2.7212   0.0000                                         
   Description                                                                  
     l       E           TYP  RCUT    TYP  RCUT                                 
     0     -7.7528455     23  1.900                                             
     0     -3.3096929     23  1.900                                             
     1     -2.7120682     23  1.900                                             
     1     13.6058260     23  1.900                                             
     2     -2.7211652      7  1.900                                             
  local pseudopotential read in
  partial core-charges read in
  partial kinetic energy density read in
  atomic valenz-charges read in
  non local Contribution for L=           0  read in
    real space projection operators read in
  non local Contribution for L=           0  read in
    real space projection operators read in
  non local Contribution for L=           1  read in
    real space projection operators read in
  non local Contribution for L=           1  read in
    real space projection operators read in
    PAW grid and wavefunctions read in
 
   number of l-projection  operators is LMAX  =           4
   number of lm-projection operators is LMMAX =           8
 

 ----------------------------------------------------------------------------- 
|                                                                             |
|  ADVICE TO THIS USER RUNNING 'VASP/VAMP'   (HEAR YOUR MASTER'S VOICE ...):  |
|                                                                             |
|      You have a (more or less) 'small supercell' and for smaller cells      |
|      it is recommended  to use the reciprocal-space projection scheme!      |
|      The real space optimization is not  efficient for small cells and it   |
|      is also less accurate ...                                              |
|      Therefore set LREAL=.FALSE. in the  INCAR file                         |
|                                                                             |
 ----------------------------------------------------------------------------- 

 Optimization of the real space projectors (new method)

 maximal supplied QI-value         = 19.84
 optimisation between [QCUT,QGAM] = [ 10.12, 20.44] = [ 28.68,116.96] Ry 
 Optimized for a Real-space Cutoff    1.38 Angstroem

   l    n(q)    QCUT    max X(q) W(low)/X(q) W(high)/X(q)  e(spline) 
   0      8    10.119   176.870    0.39E-04    0.93E-04    0.54E-07
   0      8    10.119   105.762    0.37E-04    0.91E-04    0.53E-07
   1      8    10.119    55.370    0.18E-03    0.13E-03    0.19E-06
   1      8    10.119    20.208    0.17E-03    0.12E-03    0.18E-06
  PAW_PBE Al 04Jan2001                  :
 energy of atom  1       EATOM=  -53.5387
 kinetic energy error for atom=    0.0005 (will be added to EATOM!!)
 
 
 POSCAR: Al8                                     
  positions in direct lattice
  No initial velocities read in
 exchange correlation table for  LEXCH =        8
   RHO(1)=    0.500       N(1)  =     2000
   RHO(2)=  100.500       N(2)  =     4000
 


--------------------------------------------------------------------------------------------------------


 ion  position               nearest neighbor table
   1  0.750  0.000  0.094-   2 2.86   2 2.86   4 2.86   4 2.86   3 2.86   2 2.86   4 2.86   2 2.86
                             4 2.86
   2  0.250  0.500  0.031-   1 2.86   1 2.86   4 2.86   1 2.86   1 2.86
   3  0.750  0.000  0.219-   4 2.86   4 2.86   6 2.86   6 2.86   5 2.86   1 2.86   4 2.86   6 2.86
                             4 2.86   6 2.86
   4  0.250  0.500  0.156-   1 2.86   1 2.86   3 2.86   3 2.86   6 2.86   2 2.86   1 2.86   3 2.86
                             1 2.86   3 2.86
   5  0.750  0.000  0.344-   6 2.86   6 2.86   8 2.86   8 2.86   7 2.86   3 2.86   6 2.86   8 2.86
                             6 2.86   8 2.86
   6  0.250  0.500  0.281-   3 2.86   3 2.86   5 2.86   5 2.86   8 2.86   4 2.86   3 2.86   5 2.86
                             3 2.86   5 2.86
   7  0.750  0.000  0.469-   8 2.86   8 2.86   5 2.86   8 2.86   8 2.86
   8  0.250  0.500  0.406-   5 2.86   5 2.86   7 2.86   7 2.86   6 2.86   5 2.86   7 2.86   5 2.86
                             7 2.86
 
  LATTYP: Found a simple monoclinic cell.
 ALAT       =    23.0266843847
 B/A-ratio  =     0.1754021389
 C/A-ratio  =     1.9883751365
 COS(beta)  =    -0.9980828797
  
  Lattice vectors:
  
 A1 = (  -2.8659545748,   0.0000000000, -22.8476365983)
 A2 = (   0.0000000000,  -4.0389296932,   0.0000000000)
 A3 = (   2.8759545748,   0.0000000000,  45.6952731966)


Analysis of symmetry for initial positions (statically):
=====================================================================
 Subroutine PRICEL returns:
 Original cell was already a primitive cell.
 

 Routine SETGRP: Setting up the symmetry group for a 
 simple monoclinic supercell.


 Subroutine GETGRP returns: Found  4 space group operations
 (whereof  2 operations were pure point group operations)
 out of a pool of  4 trial point group operations.


The static configuration has the point symmetry C_1h.
 The point group associated with its full space group is C_2h.


Analysis of symmetry for dynamics (positions and initial velocities):
=====================================================================
 Subroutine PRICEL returns:
 Original cell was already a primitive cell.
 

 Routine SETGRP: Setting up the symmetry group for a 
 simple monoclinic supercell.


 Subroutine GETGRP returns: Found  4 space group operations
 (whereof  2 operations were pure point group operations)
 out of a pool of  4 trial point group operations.


The dynamic configuration has the point symmetry C_1h.
 The point group associated with its full space group is C_2h.


 Subroutine INISYM returns: Found  4 space group operations
 (whereof  2 operations are pure point group operations),
 and found     1 'primitive' translations

 
 
 KPOINTS: Automatic kpoint scheme                 

Automatic generation of k-mesh.
Space group operators:
 irot       det(A)        alpha          n_x          n_y          n_z        tau_x        tau_y        tau_z
    1     1.000000     0.000001     1.000000     0.000000     0.000000     0.000000     0.000000     0.000000
    2    -1.000000   180.000000     0.000000     1.000000     0.000000     0.000000     0.000000     0.000000
    3    -1.000000     0.000001     1.000000     0.000000     0.000000    -0.000000    -0.500000     0.500000
    4     1.000000   180.000000     0.000000     1.000000     0.000000    -0.000000    -0.500000     0.500000
 
 Subroutine IBZKPT returns following result:
 ===========================================
 
 Found    560 irreducible k-points:
 
 Following reciprocal coordinates:
            Coordinates               Weight
  0.017857  0.025000  0.125000      4.000000
  0.053571  0.025000  0.125000      4.000000
  0.089286  0.025000  0.125000      4.000000
  0.125000  0.025000  0.125000      4.000000
  0.160714  0.025000  0.125000      4.000000
  0.196429  0.025000  0.125000      4.000000
  0.232143  0.025000  0.125000      4.000000
  0.267857  0.025000  0.125000      4.000000
  0.303571  0.025000  0.125000      4.000000
  0.339286  0.025000  0.125000      4.000000
  0.375000  0.025000  0.125000      4.000000
  0.410714  0.025000  0.125000      4.000000
  0.446429  0.025000  0.125000      4.000000
  0.482143  0.025000  0.125000      4.000000
 -0.482143  0.025000  0.125000      4.000000
 -0.446429  0.025000  0.125000      4.000000
 -0.410714  0.025000  0.125000      4.000000
 -0.375000  0.025000  0.125000      4.000000
 -0.339286  0.025000  0.125000      4.000000
 -0.303571  0.025000  0.125000      4.000000
 -0.267857  0.025000  0.125000      4.000000
 -0.232143  0.025000  0.125000      4.000000
 -0.196429  0.025000  0.125000      4.000000
 -0.160714  0.025000  0.125000      4.000000
 -0.125000  0.025000  0.125000      4.000000
 -0.089286  0.025000  0.125000      4.000000
 -0.053571  0.025000  0.125000      4.000000
 -0.017857  0.025000  0.125000      4.000000
  0.017857  0.075000  0.125000      4.000000
  0.053571  0.075000  0.125000      4.000000
  0.089286  0.075000  0.125000      4.000000
  0.125000  0.075000  0.125000      4.000000
  0.160714  0.075000  0.125000      4.000000
  0.196429  0.075000  0.125000      4.000000
  0.232143  0.075000  0.125000      4.000000
  0.267857  0.075000  0.125000      4.000000
  0.303571  0.075000  0.125000      4.000000
  0.339286  0.075000  0.125000      4.000000
  0.375000  0.075000  0.125000      4.000000
  0.410714  0.075000  0.125000      4.000000
  0.446429  0.075000  0.125000      4.000000
  0.482143  0.075000  0.125000      4.000000
 -0.482143  0.075000  0.125000      4.000000
 -0.446429  0.075000  0.125000      4.000000
 -0.410714  0.075000  0.125000      4.000000
 -0.375000  0.075000  0.125000      4.000000
 -0.339286  0.075000  0.125000      4.000000
 -0.303571  0.075000  0.125000      4.000000
 -0.267857  0.075000  0.125000      4.000000
 -0.232143  0.075000  0.125000      4.000000
 -0.196429  0.075000  0.125000      4.000000
 -0.160714  0.075000  0.125000      4.000000
 -0.125000  0.075000  0.125000      4.000000
 -0.089286  0.075000  0.125000      4.000000
 -0.053571  0.075000  0.125000      4.000000
 -0.017857  0.075000  0.125000      4.000000
  0.017857  0.125000  0.125000      4.000000
  0.053571  0.125000  0.125000      4.000000
  0.089286  0.125000  0.125000      4.000000
  0.125000  0.125000  0.125000      4.000000
  0.160714  0.125000  0.125000      4.000000
  0.196429  0.125000  0.125000      4.000000
  0.232143  0.125000  0.125000      4.000000
  0.267857  0.125000  0.125000      4.000000
  0.303571  0.125000  0.125000      4.000000
  0.339286  0.125000  0.125000      4.000000
  0.375000  0.125000  0.125000      4.000000
  0.410714  0.125000  0.125000      4.000000
  0.446429  0.125000  0.125000      4.000000
  0.482143  0.125000  0.125000      4.000000
 -0.482143  0.125000  0.125000      4.000000
 -0.446429  0.125000  0.125000      4.000000
 -0.410714  0.125000  0.125000      4.000000
 -0.375000  0.125000  0.125000      4.000000
 -0.339286  0.125000  0.125000      4.000000
 -0.303571  0.125000  0.125000      4.000000
 -0.267857  0.125000  0.125000      4.000000
 -0.232143  0.125000  0.125000      4.000000
 -0.196429  0.125000  0.125000      4.000000
 -0.160714  0.125000  0.125000      4.000000
 -0.125000  0.125000  0.125000      4.000000
 -0.089286  0.125000  0.125000      4.000000
 -0.053571  0.125000  0.125000      4.000000
 -0.017857  0.125000  0.125000      4.000000
  0.017857  0.175000  0.125000      4.000000
  0.053571  0.175000  0.125000      4.000000
  0.089286  0.175000  0.125000      4.000000
  0.125000  0.175000  0.125000      4.000000
  0.160714  0.175000  0.125000      4.000000
  0.196429  0.175000  0.125000      4.000000
  0.232143  0.175000  0.125000      4.000000
  0.267857  0.175000  0.125000      4.000000
  0.303571  0.175000  0.125000      4.000000
  0.339286  0.175000  0.125000      4.000000
  0.375000  0.175000  0.125000      4.000000
  0.410714  0.175000  0.125000      4.000000
  0.446429  0.175000  0.125000      4.000000
  0.482143  0.175000  0.125000      4.000000
 -0.482143  0.175000  0.125000      4.000000
 -0.446429  0.175000  0.125000      4.000000
 -0.410714  0.175000  0.125000      4.000000
 -0.375000  0.175000  0.125000      4.000000
 -0.339286  0.175000  0.125000      4.000000
 -0.303571  0.175000  0.125000      4.000000
 -0.267857  0.175000  0.125000      4.000000
 -0.232143  0.175000  0.125000      4.000000
 -0.196429  0.175000  0.125000      4.000000
 -0.160714  0.175000  0.125000      4.000000
 -0.125000  0.175000  0.125000      4.000000
 -0.089286  0.175000  0.125000      4.000000
 -0.053571  0.175000  0.125000      4.000000
 -0.017857  0.175000  0.125000      4.000000
  0.017857  0.225000  0.125000      4.000000
  0.053571  0.225000  0.125000      4.000000
  0.089286  0.225000  0.125000      4.000000
  0.125000  0.225000  0.125000      4.000000
  0.160714  0.225000  0.125000      4.000000
  0.196429  0.225000  0.125000      4.000000
  0.232143  0.225000  0.125000      4.000000
  0.267857  0.225000  0.125000      4.000000
  0.303571  0.225000  0.125000      4.000000
  0.339286  0.225000  0.125000      4.000000
  0.375000  0.225000  0.125000      4.000000
  0.410714  0.225000  0.125000      4.000000
  0.446429  0.225000  0.125000      4.000000
  0.482143  0.225000  0.125000      4.000000
 -0.482143  0.225000  0.125000      4.000000
 -0.446429  0.225000  0.125000      4.000000
 -0.410714  0.225000  0.125000      4.000000
 -0.375000  0.225000  0.125000      4.000000
 -0.339286  0.225000  0.125000      4.000000
 -0.303571  0.225000  0.125000      4.000000
 -0.267857  0.225000  0.125000      4.000000
 -0.232143  0.225000  0.125000      4.000000
 -0.196429  0.225000  0.125000      4.000000
 -0.160714  0.225000  0.125000      4.000000
 -0.125000  0.225000  0.125000      4.000000
 -0.089286  0.225000  0.125000      4.000000
 -0.053571  0.225000  0.125000      4.000000
 -0.017857  0.225000  0.125000      4.000000
  0.017857  0.275000  0.125000      4.000000
  0.053571  0.275000  0.125000      4.000000
  0.089286  0.275000  0.125000      4.000000
  0.125000  0.275000  0.125000      4.000000
  0.160714  0.275000  0.125000      4.000000
  0.196429  0.275000  0.125000      4.000000
  0.232143  0.275000  0.125000      4.000000
  0.267857  0.275000  0.125000      4.000000
  0.303571  0.275000  0.125000      4.000000
  0.339286  0.275000  0.125000      4.000000
  0.375000  0.275000  0.125000      4.000000
  0.410714  0.275000  0.125000      4.000000
  0.446429  0.275000  0.125000      4.000000
  0.482143  0.275000  0.125000      4.000000
 -0.482143  0.275000  0.125000      4.000000
 -0.446429  0.275000  0.125000      4.000000
 -0.410714  0.275000  0.125000      4.000000
 -0.375000  0.275000  0.125000      4.000000
 -0.339286  0.275000  0.125000      4.000000
 -0.303571  0.275000  0.125000      4.000000
 -0.267857  0.275000  0.125000      4.000000
 -0.232143  0.275000  0.125000      4.000000
 -0.196429  0.275000  0.125000      4.000000
 -0.160714  0.275000  0.125000      4.000000
 -0.125000  0.275000  0.125000      4.000000
 -0.089286  0.275000  0.125000      4.000000
 -0.053571  0.275000  0.125000      4.000000
 -0.017857  0.275000  0.125000      4.000000
  0.017857  0.325000  0.125000      4.000000
  0.053571  0.325000  0.125000      4.000000
  0.089286  0.325000  0.125000      4.000000
  0.125000  0.325000  0.125000      4.000000
  0.160714  0.325000  0.125000      4.000000
  0.196429  0.325000  0.125000      4.000000
  0.232143  0.325000  0.125000      4.000000
  0.267857  0.325000  0.125000      4.000000
  0.303571  0.325000  0.125000      4.000000
  0.339286  0.325000  0.125000      4.000000
  0.375000  0.325000  0.125000      4.000000
  0.410714  0.325000  0.125000      4.000000
  0.446429  0.325000  0.125000      4.000000
  0.482143  0.325000  0.125000      4.000000
 -0.482143  0.325000  0.125000      4.000000
 -0.446429  0.325000  0.125000      4.000000
 -0.410714  0.325000  0.125000      4.000000
 -0.375000  0.325000  0.125000      4.000000
 -0.339286  0.325000  0.125000      4.000000
 -0.303571  0.325000  0.125000      4.000000
 -0.267857  0.325000  0.125000      4.000000
 -0.232143  0.325000  0.125000      4.000000
 -0.196429  0.325000  0.125000      4.000000
 -0.160714  0.325000  0.125000      4.000000
 -0.125000  0.325000  0.125000      4.000000
 -0.089286  0.325000  0.125000      4.000000
 -0.053571  0.325000  0.125000      4.000000
 -0.017857  0.325000  0.125000      4.000000
  0.017857  0.375000  0.125000      4.000000
  0.053571  0.375000  0.125000      4.000000
  0.089286  0.375000  0.125000      4.000000
  0.125000  0.375000  0.125000      4.000000
  0.160714  0.375000  0.125000      4.000000
  0.196429  0.375000  0.125000      4.000000
  0.232143  0.375000  0.125000      4.000000
  0.267857  0.375000  0.125000      4.000000
  0.303571  0.375000  0.125000      4.000000
  0.339286  0.375000  0.125000      4.000000
  0.375000  0.375000  0.125000      4.000000
  0.410714  0.375000  0.125000      4.000000
  0.446429  0.375000  0.125000      4.000000
  0.482143  0.375000  0.125000      4.000000
 -0.482143  0.375000  0.125000      4.000000
 -0.446429  0.375000  0.125000      4.000000
 -0.410714  0.375000  0.125000      4.000000
 -0.375000  0.375000  0.125000      4.000000
 -0.339286  0.375000  0.125000      4.000000
 -0.303571  0.375000  0.125000      4.000000
 -0.267857  0.375000  0.125000      4.000000
 -0.232143  0.375000  0.125000      4.000000
 -0.196429  0.375000  0.125000      4.000000
 -0.160714  0.375000  0.125000      4.000000
 -0.125000  0.375000  0.125000      4.000000
 -0.089286  0.375000  0.125000      4.000000
 -0.053571  0.375000  0.125000      4.000000
 -0.017857  0.375000  0.125000      4.000000
  0.017857  0.425000  0.125000      4.000000
  0.053571  0.425000  0.125000      4.000000
  0.089286  0.425000  0.125000      4.000000
  0.125000  0.425000  0.125000      4.000000
  0.160714  0.425000  0.125000      4.000000
  0.196429  0.425000  0.125000      4.000000
  0.232143  0.425000  0.125000      4.000000
  0.267857  0.425000  0.125000      4.000000
  0.303571  0.425000  0.125000      4.000000
  0.339286  0.425000  0.125000      4.000000
  0.375000  0.425000  0.125000      4.000000
  0.410714  0.425000  0.125000      4.000000
  0.446429  0.425000  0.125000      4.000000
  0.482143  0.425000  0.125000      4.000000
 -0.482143  0.425000  0.125000      4.000000
 -0.446429  0.425000  0.125000      4.000000
 -0.410714  0.425000  0.125000      4.000000
 -0.375000  0.425000  0.125000      4.000000
 -0.339286  0.425000  0.125000      4.000000
 -0.303571  0.425000  0.125000      4.000000
 -0.267857  0.425000  0.125000      4.000000
 -0.232143  0.425000  0.125000      4.000000
 -0.196429  0.425000  0.125000      4.000000
 -0.160714  0.425000  0.125000      4.000000
 -0.125000  0.425000  0.125000      4.000000
 -0.089286  0.425000  0.125000      4.000000
 -0.053571  0.425000  0.125000      4.000000
 -0.017857  0.425000  0.125000      4.000000
  0.017857  0.475000  0.125000      4.000000
  0.053571  0.475000  0.125000      4.000000
  0.089286  0.475000  0.125000      4.000000
  0.125000  0.475000  0.125000      4.000000
  0.160714  0.475000  0.125000      4.000000
  0.196429  0.475000  0.125000      4.000000
  0.232143  0.475000  0.125000      4.000000
  0.267857  0.475000  0.125000      4.000000
  0.303571  0.475000  0.125000      4.000000
  0.339286  0.475000  0.125000      4.000000
  0.375000  0.475000  0.125000      4.000000
  0.410714  0.475000  0.125000      4.000000
  0.446429  0.475000  0.125000      4.000000
  0.482143  0.475000  0.125000      4.000000
 -0.482143  0.475000  0.125000      4.000000
 -0.446429  0.475000  0.125000      4.000000
 -0.410714  0.475000  0.125000      4.000000
 -0.375000  0.475000  0.125000      4.000000
 -0.339286  0.475000  0.125000      4.000000
 -0.303571  0.475000  0.125000      4.000000
 -0.267857  0.475000  0.125000      4.000000
 -0.232143  0.475000  0.125000      4.000000
 -0.196429  0.475000  0.125000      4.000000
 -0.160714  0.475000  0.125000      4.000000
 -0.125000  0.475000  0.125000      4.000000
 -0.089286  0.475000  0.125000      4.000000
 -0.053571  0.475000  0.125000      4.000000
 -0.017857  0.475000  0.125000      4.000000
  0.017857  0.025000  0.375000      4.000000
  0.053571  0.025000  0.375000      4.000000
  0.089286  0.025000  0.375000      4.000000
  0.125000  0.025000  0.375000      4.000000
  0.160714  0.025000  0.375000      4.000000
  0.196429  0.025000  0.375000      4.000000
  0.232143  0.025000  0.375000      4.000000
  0.267857  0.025000  0.375000      4.000000
  0.303571  0.025000  0.375000      4.000000
  0.339286  0.025000  0.375000      4.000000
  0.375000  0.025000  0.375000      4.000000
  0.410714  0.025000  0.375000      4.000000
  0.446429  0.025000  0.375000      4.000000
  0.482143  0.025000  0.375000      4.000000
 -0.482143  0.025000  0.375000      4.000000
 -0.446429  0.025000  0.375000      4.000000
 -0.410714  0.025000  0.375000      4.000000
 -0.375000  0.025000  0.375000      4.000000
 -0.339286  0.025000  0.375000      4.000000
 -0.303571  0.025000  0.375000      4.000000
 -0.267857  0.025000  0.375000      4.000000
 -0.232143  0.025000  0.375000      4.000000
 -0.196429  0.025000  0.375000      4.000000
 -0.160714  0.025000  0.375000      4.000000
 -0.125000  0.025000  0.375000      4.000000
 -0.089286  0.025000  0.375000      4.000000
 -0.053571  0.025000  0.375000      4.000000
 -0.017857  0.025000  0.375000      4.000000
  0.017857  0.075000  0.375000      4.000000
  0.053571  0.075000  0.375000      4.000000
  0.089286  0.075000  0.375000      4.000000
  0.125000  0.075000  0.375000      4.000000
  0.160714  0.075000  0.375000      4.000000
  0.196429  0.075000  0.375000      4.000000
  0.232143  0.075000  0.375000      4.000000
  0.267857  0.075000  0.375000      4.000000
  0.303571  0.075000  0.375000      4.000000
  0.339286  0.075000  0.375000      4.000000
  0.375000  0.075000  0.375000      4.000000
  0.410714  0.075000  0.375000      4.000000
  0.446429  0.075000  0.375000      4.000000
  0.482143  0.075000  0.375000      4.000000
 -0.482143  0.075000  0.375000      4.000000
 -0.446429  0.075000  0.375000      4.000000
 -0.410714  0.075000  0.375000      4.000000
 -0.375000  0.075000  0.375000      4.000000
 -0.339286  0.075000  0.375000      4.000000
 -0.303571  0.075000  0.375000      4.000000
 -0.267857  0.075000  0.375000      4.000000
 -0.232143  0.075000  0.375000      4.000000
 -0.196429  0.075000  0.375000      4.000000
 -0.160714  0.075000  0.375000      4.000000
 -0.125000  0.075000  0.375000      4.000000
 -0.089286  0.075000  0.375000      4.000000
 -0.053571  0.075000  0.375000      4.000000
 -0.017857  0.075000  0.375000      4.000000
  0.017857  0.125000  0.375000      4.000000
  0.053571  0.125000  0.375000      4.000000
  0.089286  0.125000  0.375000      4.000000
  0.125000  0.125000  0.375000      4.000000
  0.160714  0.125000  0.375000      4.000000
  0.196429  0.125000  0.375000      4.000000
  0.232143  0.125000  0.375000      4.000000
  0.267857  0.125000  0.375000      4.000000
  0.303571  0.125000  0.375000      4.000000
  0.339286  0.125000  0.375000      4.000000
  0.375000  0.125000  0.375000      4.000000
  0.410714  0.125000  0.375000      4.000000
  0.446429  0.125000  0.375000      4.000000
  0.482143  0.125000  0.375000      4.000000
 -0.482143  0.125000  0.375000      4.000000
 -0.446429  0.125000  0.375000      4.000000
 -0.410714  0.125000  0.375000      4.000000
 -0.375000  0.125000  0.375000      4.000000
 -0.339286  0.125000  0.375000      4.000000
 -0.303571  0.125000  0.375000      4.000000
 -0.267857  0.125000  0.375000      4.000000
 -0.232143  0.125000  0.375000      4.000000
 -0.196429  0.125000  0.375000      4.000000
 -0.160714  0.125000  0.375000      4.000000
 -0.125000  0.125000  0.375000      4.000000
 -0.089286  0.125000  0.375000      4.000000
 -0.053571  0.125000  0.375000      4.000000
 -0.017857  0.125000  0.375000      4.000000
  0.017857  0.175000  0.375000      4.000000
  0.053571  0.175000  0.375000      4.000000
  0.089286  0.175000  0.375000      4.000000
  0.125000  0.175000  0.375000      4.000000
  0.160714  0.175000  0.375000      4.000000
  0.196429  0.175000  0.375000      4.000000
  0.232143  0.175000  0.375000      4.000000
  0.267857  0.175000  0.375000      4.000000
  0.303571  0.175000  0.375000      4.000000
  0.339286  0.175000  0.375000      4.000000
  0.375000  0.175000  0.375000      4.000000
  0.410714  0.175000  0.375000      4.000000
  0.446429  0.175000  0.375000      4.000000
  0.482143  0.175000  0.375000      4.000000
 -0.482143  0.175000  0.375000      4.000000
 -0.446429  0.175000  0.375000      4.000000
 -0.410714  0.175000  0.375000      4.000000
 -0.375000  0.175000  0.375000      4.000000
 -0.339286  0.175000  0.375000      4.000000
 -0.303571  0.175000  0.375000      4.000000
 -0.267857  0.175000  0.375000      4.000000
 -0.232143  0.175000  0.375000      4.000000
 -0.196429  0.175000  0.375000      4.000000
 -0.160714  0.175000  0.375000      4.000000
 -0.125000  0.175000  0.375000      4.000000
 -0.089286  0.175000  0.375000      4.000000
 -0.053571  0.175000  0.375000      4.000000
 -0.017857  0.175000  0.375000      4.000000
  0.017857  0.225000  0.375000      4.000000
  0.053571  0.225000  0.375000      4.000000
  0.089286  0.225000  0.375000      4.000000
  0.125000  0.225000  0.375000      4.000000
  0.160714  0.225000  0.375000      4.000000
  0.196429  0.225000  0.375000      4.000000
  0.232143  0.225000  0.375000      4.000000
  0.267857  0.225000  0.375000      4.000000
  0.303571  0.225000  0.375000      4.000000
  0.339286  0.225000  0.375000      4.000000
  0.375000  0.225000  0.375000      4.000000
  0.410714  0.225000  0.375000      4.000000
  0.446429  0.225000  0.375000      4.000000
  0.482143  0.225000  0.375000      4.000000
 -0.482143  0.225000  0.375000      4.000000
 -0.446429  0.225000  0.375000      4.000000
 -0.410714  0.225000  0.375000      4.000000
 -0.375000  0.225000  0.375000      4.000000
 -0.339286  0.225000  0.375000      4.000000
 -0.303571  0.225000  0.375000      4.000000
 -0.267857  0.225000  0.375000      4.000000
 -0.232143  0.225000  0.375000      4.000000
 -0.196429  0.225000  0.375000      4.000000
 -0.160714  0.225000  0.375000      4.000000
 -0.125000  0.225000  0.375000      4.000000
 -0.089286  0.225000  0.375000      4.000000
 -0.053571  0.225000  0.375000      4.000000
 -0.017857  0.225000  0.375000      4.000000
  0.017857  0.275000  0.375000      4.000000
  0.053571  0.275000  0.375000      4.000000
  0.089286  0.275000  0.375000      4.000000
  0.125000  0.275000  0.375000      4.000000
  0.160714  0.275000  0.375000      4.000000
  0.196429  0.275000  0.375000      4.000000
  0.232143  0.275000  0.375000      4.000000
  0.267857  0.275000  0.375000      4.000000
  0.303571  0.275000  0.375000      4.000000
  0.339286  0.275000  0.375000      4.000000
  0.375000  0.275000  0.375000      4.000000
  0.410714  0.275000  0.375000      4.000000
  0.446429  0.275000  0.375000      4.000000
  0.482143  0.275000  0.375000      4.000000
 -0.482143  0.275000  0.375000      4.000000
 -0.446429  0.275000  0.375000      4.000000
 -0.410714  0.275000  0.375000      4.000000
 -0.375000  0.275000  0.375000      4.000000
 -0.339286  0.275000  0.375000      4.000000
 -0.303571  0.275000  0.375000      4.000000
 -0.267857  0.275000  0.375000      4.000000
 -0.232143  0.275000  0.375000      4.000000
 -0.196429  0.275000  0.375000      4.000000
 -0.160714  0.275000  0.375000      4.000000
 -0.125000  0.275000  0.375000      4.000000
 -0.089286  0.275000  0.375000      4.000000
 -0.053571  0.275000  0.375000      4.000000
 -0.017857  0.275000  0.375000      4.000000
  0.017857  0.325000  0.375000      4.000000
  0.053571  0.325000  0.375000      4.000000
  0.089286  0.325000  0.375000      4.000000
  0.125000  0.325000  0.375000      4.000000
  0.160714  0.325000  0.375000      4.000000
  0.196429  0.325000  0.375000      4.000000
  0.232143  0.325000  0.375000      4.000000
  0.267857  0.325000  0.375000      4.000000
  0.303571  0.325000  0.375000      4.000000
  0.339286  0.325000  0.375000      4.000000
  0.375000  0.325000  0.375000      4.000000
  0.410714  0.325000  0.375000      4.000000
  0.446429  0.325000  0.375000      4.000000
  0.482143  0.325000  0.375000      4.000000
 -0.482143  0.325000  0.375000      4.000000
 -0.446429  0.325000  0.375000      4.000000
 -0.410714  0.325000  0.375000      4.000000
 -0.375000  0.325000  0.375000      4.000000
 -0.339286  0.325000  0.375000      4.000000
 -0.303571  0.325000  0.375000      4.000000
 -0.267857  0.325000  0.375000      4.000000
 -0.232143  0.325000  0.375000      4.000000
 -0.196429  0.325000  0.375000      4.000000
 -0.160714  0.325000  0.375000      4.000000
 -0.125000  0.325000  0.375000      4.000000
 -0.089286  0.325000  0.375000      4.000000
 -0.053571  0.325000  0.375000      4.000000
 -0.017857  0.325000  0.375000      4.000000
  0.017857  0.375000  0.375000      4.000000
  0.053571  0.375000  0.375000      4.000000
  0.089286  0.375000  0.375000      4.000000
  0.125000  0.375000  0.375000      4.000000
  0.160714  0.375000  0.375000      4.000000
  0.196429  0.375000  0.375000      4.000000
  0.232143  0.375000  0.375000      4.000000
  0.267857  0.375000  0.375000      4.000000
  0.303571  0.375000  0.375000      4.000000
  0.339286  0.375000  0.375000      4.000000
  0.375000  0.375000  0.375000      4.000000
  0.410714  0.375000  0.375000      4.000000
  0.446429  0.375000  0.375000      4.000000
  0.482143  0.375000  0.375000      4.000000
 -0.482143  0.375000  0.375000      4.000000
 -0.446429  0.375000  0.375000      4.000000
 -0.410714  0.375000  0.375000      4.000000
 -0.375000  0.375000  0.375000      4.000000
 -0.339286  0.375000  0.375000      4.000000
 -0.303571  0.375000  0.375000      4.000000
 -0.267857  0.375000  0.375000      4.000000
 -0.232143  0.375000  0.375000      4.000000
 -0.196429  0.375000  0.375000      4.000000
 -0.160714  0.375000  0.375000      4.000000
 -0.125000  0.375000  0.375000      4.000000
 -0.089286  0.375000  0.375000      4.000000
 -0.053571  0.375000  0.375000      4.000000
 -0.017857  0.375000  0.375000      4.000000
  0.017857  0.425000  0.375000      4.000000
  0.053571  0.425000  0.375000      4.000000
  0.089286  0.425000  0.375000      4.000000
  0.125000  0.425000  0.375000      4.000000
  0.160714  0.425000  0.375000      4.000000
  0.196429  0.425000  0.375000      4.000000
  0.232143  0.425000  0.375000      4.000000
  0.267857  0.425000  0.375000      4.000000
  0.303571  0.425000  0.375000      4.000000
  0.339286  0.425000  0.375000      4.000000
  0.375000  0.425000  0.375000      4.000000
  0.410714  0.425000  0.375000      4.000000
  0.446429  0.425000  0.375000      4.000000
  0.482143  0.425000  0.375000      4.000000
 -0.482143  0.425000  0.375000      4.000000
 -0.446429  0.425000  0.375000      4.000000
 -0.410714  0.425000  0.375000      4.000000
 -0.375000  0.425000  0.375000      4.000000
 -0.339286  0.425000  0.375000      4.000000
 -0.303571  0.425000  0.375000      4.000000
 -0.267857  0.425000  0.375000      4.000000
 -0.232143  0.425000  0.375000      4.000000
 -0.196429  0.425000  0.375000      4.000000
 -0.160714  0.425000  0.375000      4.000000
 -0.125000  0.425000  0.375000      4.000000
 -0.089286  0.425000  0.375000      4.000000
 -0.053571  0.425000  0.375000      4.000000
 -0.017857  0.425000  0.375000      4.000000
  0.017857  0.475000  0.375000      4.000000
  0.053571  0.475000  0.375000      4.000000
  0.089286  0.475000  0.375000      4.000000
  0.125000  0.475000  0.375000      4.000000
  0.160714  0.475000  0.375000      4.000000
  0.196429  0.475000  0.375000      4.000000
  0.232143  0.475000  0.375000      4.000000
  0.267857  0.475000  0.375000      4.000000
  0.303571  0.475000  0.375000      4.000000
  0.339286  0.475000  0.375000      4.000000
  0.375000  0.475000  0.375000      4.000000
  0.410714  0.475000  0.375000      4.000000
  0.446429  0.475000  0.375000      4.000000
  0.482143  0.475000  0.375000      4.000000
 -0.482143  0.475000  0.375000      4.000000
 -0.446429  0.475000  0.375000      4.000000
 -0.410714  0.475000  0.375000      4.000000
 -0.375000  0.475000  0.375000      4.000000
 -0.339286  0.475000  0.375000      4.000000
 -0.303571  0.475000  0.375000      4.000000
 -0.267857  0.475000  0.375000      4.000000
 -0.232143  0.475000  0.375000      4.000000
 -0.196429  0.475000  0.375000      4.000000
 -0.160714  0.475000  0.375000      4.000000
 -0.125000  0.475000  0.375000      4.000000
 -0.089286  0.475000  0.375000      4.000000
 -0.053571  0.475000  0.375000      4.000000
 -0.017857  0.475000  0.375000      4.000000
 
 Following cartesian coordinates:
            Coordinates               Weight
  0.006253  0.006190  0.005468      4.000000
  0.018758  0.006190  0.005463      4.000000
  0.031263  0.006190  0.005457      4.000000
  0.043768  0.006190  0.005452      4.000000
  0.056273  0.006190  0.005446      4.000000
  0.068779  0.006190  0.005441      4.000000
  0.081284  0.006190  0.005435      4.000000
  0.093789  0.006190  0.005430      4.000000
  0.106294  0.006190  0.005425      4.000000
  0.118799  0.006190  0.005419      4.000000
  0.131305  0.006190  0.005414      4.000000
  0.143810  0.006190  0.005408      4.000000
  0.156315  0.006190  0.005403      4.000000
  0.168820  0.006190  0.005397      4.000000
 -0.168820  0.006190  0.005545      4.000000
 -0.156315  0.006190  0.005539      4.000000
 -0.143810  0.006190  0.005534      4.000000
 -0.131305  0.006190  0.005528      4.000000
 -0.118799  0.006190  0.005523      4.000000
 -0.106294  0.006190  0.005518      4.000000
 -0.093789  0.006190  0.005512      4.000000
 -0.081284  0.006190  0.005507      4.000000
 -0.068779  0.006190  0.005501      4.000000
 -0.056273  0.006190  0.005496      4.000000
 -0.043768  0.006190  0.005490      4.000000
 -0.031263  0.006190  0.005485      4.000000
 -0.018758  0.006190  0.005479      4.000000
 -0.006253  0.006190  0.005474      4.000000
  0.006253  0.018569  0.005468      4.000000
  0.018758  0.018569  0.005463      4.000000
  0.031263  0.018569  0.005457      4.000000
  0.043768  0.018569  0.005452      4.000000
  0.056273  0.018569  0.005446      4.000000
  0.068779  0.018569  0.005441      4.000000
  0.081284  0.018569  0.005435      4.000000
  0.093789  0.018569  0.005430      4.000000
  0.106294  0.018569  0.005425      4.000000
  0.118799  0.018569  0.005419      4.000000
  0.131305  0.018569  0.005414      4.000000
  0.143810  0.018569  0.005408      4.000000
  0.156315  0.018569  0.005403      4.000000
  0.168820  0.018569  0.005397      4.000000
 -0.168820  0.018569  0.005545      4.000000
 -0.156315  0.018569  0.005539      4.000000
 -0.143810  0.018569  0.005534      4.000000
 -0.131305  0.018569  0.005528      4.000000
 -0.118799  0.018569  0.005523      4.000000
 -0.106294  0.018569  0.005518      4.000000
 -0.093789  0.018569  0.005512      4.000000
 -0.081284  0.018569  0.005507      4.000000
 -0.068779  0.018569  0.005501      4.000000
 -0.056273  0.018569  0.005496      4.000000
 -0.043768  0.018569  0.005490      4.000000
 -0.031263  0.018569  0.005485      4.000000
 -0.018758  0.018569  0.005479      4.000000
 -0.006253  0.018569  0.005474      4.000000
  0.006253  0.030949  0.005468      4.000000
  0.018758  0.030949  0.005463      4.000000
  0.031263  0.030949  0.005457      4.000000
  0.043768  0.030949  0.005452      4.000000
  0.056273  0.030949  0.005446      4.000000
  0.068779  0.030949  0.005441      4.000000
  0.081284  0.030949  0.005435      4.000000
  0.093789  0.030949  0.005430      4.000000
  0.106294  0.030949  0.005425      4.000000
  0.118799  0.030949  0.005419      4.000000
  0.131305  0.030949  0.005414      4.000000
  0.143810  0.030949  0.005408      4.000000
  0.156315  0.030949  0.005403      4.000000
  0.168820  0.030949  0.005397      4.000000
 -0.168820  0.030949  0.005545      4.000000
 -0.156315  0.030949  0.005539      4.000000
 -0.143810  0.030949  0.005534      4.000000
 -0.131305  0.030949  0.005528      4.000000
 -0.118799  0.030949  0.005523      4.000000
 -0.106294  0.030949  0.005518      4.000000
 -0.093789  0.030949  0.005512      4.000000
 -0.081284  0.030949  0.005507      4.000000
 -0.068779  0.030949  0.005501      4.000000
 -0.056273  0.030949  0.005496      4.000000
 -0.043768  0.030949  0.005490      4.000000
 -0.031263  0.030949  0.005485      4.000000
 -0.018758  0.030949  0.005479      4.000000
 -0.006253  0.030949  0.005474      4.000000
  0.006253  0.043328  0.005468      4.000000
  0.018758  0.043328  0.005463      4.000000
  0.031263  0.043328  0.005457      4.000000
  0.043768  0.043328  0.005452      4.000000
  0.056273  0.043328  0.005446      4.000000
  0.068779  0.043328  0.005441      4.000000
  0.081284  0.043328  0.005435      4.000000
  0.093789  0.043328  0.005430      4.000000
  0.106294  0.043328  0.005425      4.000000
  0.118799  0.043328  0.005419      4.000000
  0.131305  0.043328  0.005414      4.000000
  0.143810  0.043328  0.005408      4.000000
  0.156315  0.043328  0.005403      4.000000
  0.168820  0.043328  0.005397      4.000000
 -0.168820  0.043328  0.005545      4.000000
 -0.156315  0.043328  0.005539      4.000000
 -0.143810  0.043328  0.005534      4.000000
 -0.131305  0.043328  0.005528      4.000000
 -0.118799  0.043328  0.005523      4.000000
 -0.106294  0.043328  0.005518      4.000000
 -0.093789  0.043328  0.005512      4.000000
 -0.081284  0.043328  0.005507      4.000000
 -0.068779  0.043328  0.005501      4.000000
 -0.056273  0.043328  0.005496      4.000000
 -0.043768  0.043328  0.005490      4.000000
 -0.031263  0.043328  0.005485      4.000000
 -0.018758  0.043328  0.005479      4.000000
 -0.006253  0.043328  0.005474      4.000000
  0.006253  0.055708  0.005468      4.000000
  0.018758  0.055708  0.005463      4.000000
  0.031263  0.055708  0.005457      4.000000
  0.043768  0.055708  0.005452      4.000000
  0.056273  0.055708  0.005446      4.000000
  0.068779  0.055708  0.005441      4.000000
  0.081284  0.055708  0.005435      4.000000
  0.093789  0.055708  0.005430      4.000000
  0.106294  0.055708  0.005425      4.000000
  0.118799  0.055708  0.005419      4.000000
  0.131305  0.055708  0.005414      4.000000
  0.143810  0.055708  0.005408      4.000000
  0.156315  0.055708  0.005403      4.000000
  0.168820  0.055708  0.005397      4.000000
 -0.168820  0.055708  0.005545      4.000000
 -0.156315  0.055708  0.005539      4.000000
 -0.143810  0.055708  0.005534      4.000000
 -0.131305  0.055708  0.005528      4.000000
 -0.118799  0.055708  0.005523      4.000000
 -0.106294  0.055708  0.005518      4.000000
 -0.093789  0.055708  0.005512      4.000000
 -0.081284  0.055708  0.005507      4.000000
 -0.068779  0.055708  0.005501      4.000000
 -0.056273  0.055708  0.005496      4.000000
 -0.043768  0.055708  0.005490      4.000000
 -0.031263  0.055708  0.005485      4.000000
 -0.018758  0.055708  0.005479      4.000000
 -0.006253  0.055708  0.005474      4.000000
  0.006253  0.068087  0.005468      4.000000
  0.018758  0.068087  0.005463      4.000000
  0.031263  0.068087  0.005457      4.000000
  0.043768  0.068087  0.005452      4.000000
  0.056273  0.068087  0.005446      4.000000
  0.068779  0.068087  0.005441      4.000000
  0.081284  0.068087  0.005435      4.000000
  0.093789  0.068087  0.005430      4.000000
  0.106294  0.068087  0.005425      4.000000
  0.118799  0.068087  0.005419      4.000000
  0.131305  0.068087  0.005414      4.000000
  0.143810  0.068087  0.005408      4.000000
  0.156315  0.068087  0.005403      4.000000
  0.168820  0.068087  0.005397      4.000000
 -0.168820  0.068087  0.005545      4.000000
 -0.156315  0.068087  0.005539      4.000000
 -0.143810  0.068087  0.005534      4.000000
 -0.131305  0.068087  0.005528      4.000000
 -0.118799  0.068087  0.005523      4.000000
 -0.106294  0.068087  0.005518      4.000000
 -0.093789  0.068087  0.005512      4.000000
 -0.081284  0.068087  0.005507      4.000000
 -0.068779  0.068087  0.005501      4.000000
 -0.056273  0.068087  0.005496      4.000000
 -0.043768  0.068087  0.005490      4.000000
 -0.031263  0.068087  0.005485      4.000000
 -0.018758  0.068087  0.005479      4.000000
 -0.006253  0.068087  0.005474      4.000000
  0.006253  0.080467  0.005468      4.000000
  0.018758  0.080467  0.005463      4.000000
  0.031263  0.080467  0.005457      4.000000
  0.043768  0.080467  0.005452      4.000000
  0.056273  0.080467  0.005446      4.000000
  0.068779  0.080467  0.005441      4.000000
  0.081284  0.080467  0.005435      4.000000
  0.093789  0.080467  0.005430      4.000000
  0.106294  0.080467  0.005425      4.000000
  0.118799  0.080467  0.005419      4.000000
  0.131305  0.080467  0.005414      4.000000
  0.143810  0.080467  0.005408      4.000000
  0.156315  0.080467  0.005403      4.000000
  0.168820  0.080467  0.005397      4.000000
 -0.168820  0.080467  0.005545      4.000000
 -0.156315  0.080467  0.005539      4.000000
 -0.143810  0.080467  0.005534      4.000000
 -0.131305  0.080467  0.005528      4.000000
 -0.118799  0.080467  0.005523      4.000000
 -0.106294  0.080467  0.005518      4.000000
 -0.093789  0.080467  0.005512      4.000000
 -0.081284  0.080467  0.005507      4.000000
 -0.068779  0.080467  0.005501      4.000000
 -0.056273  0.080467  0.005496      4.000000
 -0.043768  0.080467  0.005490      4.000000
 -0.031263  0.080467  0.005485      4.000000
 -0.018758  0.080467  0.005479      4.000000
 -0.006253  0.080467  0.005474      4.000000
  0.006253  0.092846  0.005468      4.000000
  0.018758  0.092846  0.005463      4.000000
  0.031263  0.092846  0.005457      4.000000
  0.043768  0.092846  0.005452      4.000000
  0.056273  0.092846  0.005446      4.000000
  0.068779  0.092846  0.005441      4.000000
  0.081284  0.092846  0.005435      4.000000
  0.093789  0.092846  0.005430      4.000000
  0.106294  0.092846  0.005425      4.000000
  0.118799  0.092846  0.005419      4.000000
  0.131305  0.092846  0.005414      4.000000
  0.143810  0.092846  0.005408      4.000000
  0.156315  0.092846  0.005403      4.000000
  0.168820  0.092846  0.005397      4.000000
 -0.168820  0.092846  0.005545      4.000000
 -0.156315  0.092846  0.005539      4.000000
 -0.143810  0.092846  0.005534      4.000000
 -0.131305  0.092846  0.005528      4.000000
 -0.118799  0.092846  0.005523      4.000000
 -0.106294  0.092846  0.005518      4.000000
 -0.093789  0.092846  0.005512      4.000000
 -0.081284  0.092846  0.005507      4.000000
 -0.068779  0.092846  0.005501      4.000000
 -0.056273  0.092846  0.005496      4.000000
 -0.043768  0.092846  0.005490      4.000000
 -0.031263  0.092846  0.005485      4.000000
 -0.018758  0.092846  0.005479      4.000000
 -0.006253  0.092846  0.005474      4.000000
  0.006253  0.105226  0.005468      4.000000
  0.018758  0.105226  0.005463      4.000000
  0.031263  0.105226  0.005457      4.000000
  0.043768  0.105226  0.005452      4.000000
  0.056273  0.105226  0.005446      4.000000
  0.068779  0.105226  0.005441      4.000000
  0.081284  0.105226  0.005435      4.000000
  0.093789  0.105226  0.005430      4.000000
  0.106294  0.105226  0.005425      4.000000
  0.118799  0.105226  0.005419      4.000000
  0.131305  0.105226  0.005414      4.000000
  0.143810  0.105226  0.005408      4.000000
  0.156315  0.105226  0.005403      4.000000
  0.168820  0.105226  0.005397      4.000000
 -0.168820  0.105226  0.005545      4.000000
 -0.156315  0.105226  0.005539      4.000000
 -0.143810  0.105226  0.005534      4.000000
 -0.131305  0.105226  0.005528      4.000000
 -0.118799  0.105226  0.005523      4.000000
 -0.106294  0.105226  0.005518      4.000000
 -0.093789  0.105226  0.005512      4.000000
 -0.081284  0.105226  0.005507      4.000000
 -0.068779  0.105226  0.005501      4.000000
 -0.056273  0.105226  0.005496      4.000000
 -0.043768  0.105226  0.005490      4.000000
 -0.031263  0.105226  0.005485      4.000000
 -0.018758  0.105226  0.005479      4.000000
 -0.006253  0.105226  0.005474      4.000000
  0.006253  0.117605  0.005468      4.000000
  0.018758  0.117605  0.005463      4.000000
  0.031263  0.117605  0.005457      4.000000
  0.043768  0.117605  0.005452      4.000000
  0.056273  0.117605  0.005446      4.000000
  0.068779  0.117605  0.005441      4.000000
  0.081284  0.117605  0.005435      4.000000
  0.093789  0.117605  0.005430      4.000000
  0.106294  0.117605  0.005425      4.000000
  0.118799  0.117605  0.005419      4.000000
  0.131305  0.117605  0.005414      4.000000
  0.143810  0.117605  0.005408      4.000000
  0.156315  0.117605  0.005403      4.000000
  0.168820  0.117605  0.005397      4.000000
 -0.168820  0.117605  0.005545      4.000000
 -0.156315  0.117605  0.005539      4.000000
 -0.143810  0.117605  0.005534      4.000000
 -0.131305  0.117605  0.005528      4.000000
 -0.118799  0.117605  0.005523      4.000000
 -0.106294  0.117605  0.005518      4.000000
 -0.093789  0.117605  0.005512      4.000000
 -0.081284  0.117605  0.005507      4.000000
 -0.068779  0.117605  0.005501      4.000000
 -0.056273  0.117605  0.005496      4.000000
 -0.043768  0.117605  0.005490      4.000000
 -0.031263  0.117605  0.005485      4.000000
 -0.018758  0.117605  0.005479      4.000000
 -0.006253  0.117605  0.005474      4.000000
  0.006253  0.006190  0.016410      4.000000
  0.018758  0.006190  0.016405      4.000000
  0.031263  0.006190  0.016399      4.000000
  0.043768  0.006190  0.016394      4.000000
  0.056273  0.006190  0.016388      4.000000
  0.068779  0.006190  0.016383      4.000000
  0.081284  0.006190  0.016377      4.000000
  0.093789  0.006190  0.016372      4.000000
  0.106294  0.006190  0.016367      4.000000
  0.118799  0.006190  0.016361      4.000000
  0.131305  0.006190  0.016356      4.000000
  0.143810  0.006190  0.016350      4.000000
  0.156315  0.006190  0.016345      4.000000
  0.168820  0.006190  0.016339      4.000000
 -0.168820  0.006190  0.016487      4.000000
 -0.156315  0.006190  0.016481      4.000000
 -0.143810  0.006190  0.016476      4.000000
 -0.131305  0.006190  0.016471      4.000000
 -0.118799  0.006190  0.016465      4.000000
 -0.106294  0.006190  0.016460      4.000000
 -0.093789  0.006190  0.016454      4.000000
 -0.081284  0.006190  0.016449      4.000000
 -0.068779  0.006190  0.016443      4.000000
 -0.056273  0.006190  0.016438      4.000000
 -0.043768  0.006190  0.016432      4.000000
 -0.031263  0.006190  0.016427      4.000000
 -0.018758  0.006190  0.016421      4.000000
 -0.006253  0.006190  0.016416      4.000000
  0.006253  0.018569  0.016410      4.000000
  0.018758  0.018569  0.016405      4.000000
  0.031263  0.018569  0.016399      4.000000
  0.043768  0.018569  0.016394      4.000000
  0.056273  0.018569  0.016388      4.000000
  0.068779  0.018569  0.016383      4.000000
  0.081284  0.018569  0.016377      4.000000
  0.093789  0.018569  0.016372      4.000000
  0.106294  0.018569  0.016367      4.000000
  0.118799  0.018569  0.016361      4.000000
  0.131305  0.018569  0.016356      4.000000
  0.143810  0.018569  0.016350      4.000000
  0.156315  0.018569  0.016345      4.000000
  0.168820  0.018569  0.016339      4.000000
 -0.168820  0.018569  0.016487      4.000000
 -0.156315  0.018569  0.016481      4.000000
 -0.143810  0.018569  0.016476      4.000000
 -0.131305  0.018569  0.016471      4.000000
 -0.118799  0.018569  0.016465      4.000000
 -0.106294  0.018569  0.016460      4.000000
 -0.093789  0.018569  0.016454      4.000000
 -0.081284  0.018569  0.016449      4.000000
 -0.068779  0.018569  0.016443      4.000000
 -0.056273  0.018569  0.016438      4.000000
 -0.043768  0.018569  0.016432      4.000000
 -0.031263  0.018569  0.016427      4.000000
 -0.018758  0.018569  0.016421      4.000000
 -0.006253  0.018569  0.016416      4.000000
  0.006253  0.030949  0.016410      4.000000
  0.018758  0.030949  0.016405      4.000000
  0.031263  0.030949  0.016399      4.000000
  0.043768  0.030949  0.016394      4.000000
  0.056273  0.030949  0.016388      4.000000
  0.068779  0.030949  0.016383      4.000000
  0.081284  0.030949  0.016377      4.000000
  0.093789  0.030949  0.016372      4.000000
  0.106294  0.030949  0.016367      4.000000
  0.118799  0.030949  0.016361      4.000000
  0.131305  0.030949  0.016356      4.000000
  0.143810  0.030949  0.016350      4.000000
  0.156315  0.030949  0.016345      4.000000
  0.168820  0.030949  0.016339      4.000000
 -0.168820  0.030949  0.016487      4.000000
 -0.156315  0.030949  0.016481      4.000000
 -0.143810  0.030949  0.016476      4.000000
 -0.131305  0.030949  0.016471      4.000000
 -0.118799  0.030949  0.016465      4.000000
 -0.106294  0.030949  0.016460      4.000000
 -0.093789  0.030949  0.016454      4.000000
 -0.081284  0.030949  0.016449      4.000000
 -0.068779  0.030949  0.016443      4.000000
 -0.056273  0.030949  0.016438      4.000000
 -0.043768  0.030949  0.016432      4.000000
 -0.031263  0.030949  0.016427      4.000000
 -0.018758  0.030949  0.016421      4.000000
 -0.006253  0.030949  0.016416      4.000000
  0.006253  0.043328  0.016410      4.000000
  0.018758  0.043328  0.016405      4.000000
  0.031263  0.043328  0.016399      4.000000
  0.043768  0.043328  0.016394      4.000000
  0.056273  0.043328  0.016388      4.000000
  0.068779  0.043328  0.016383      4.000000
  0.081284  0.043328  0.016377      4.000000
  0.093789  0.043328  0.016372      4.000000
  0.106294  0.043328  0.016367      4.000000
  0.118799  0.043328  0.016361      4.000000
  0.131305  0.043328  0.016356      4.000000
  0.143810  0.043328  0.016350      4.000000
  0.156315  0.043328  0.016345      4.000000
  0.168820  0.043328  0.016339      4.000000
 -0.168820  0.043328  0.016487      4.000000
 -0.156315  0.043328  0.016481      4.000000
 -0.143810  0.043328  0.016476      4.000000
 -0.131305  0.043328  0.016471      4.000000
 -0.118799  0.043328  0.016465      4.000000
 -0.106294  0.043328  0.016460      4.000000
 -0.093789  0.043328  0.016454      4.000000
 -0.081284  0.043328  0.016449      4.000000
 -0.068779  0.043328  0.016443      4.000000
 -0.056273  0.043328  0.016438      4.000000
 -0.043768  0.043328  0.016432      4.000000
 -0.031263  0.043328  0.016427      4.000000
 -0.018758  0.043328  0.016421      4.000000
 -0.006253  0.043328  0.016416      4.000000
  0.006253  0.055708  0.016410      4.000000
  0.018758  0.055708  0.016405      4.000000
  0.031263  0.055708  0.016399      4.000000
  0.043768  0.055708  0.016394      4.000000
  0.056273  0.055708  0.016388      4.000000
  0.068779  0.055708  0.016383      4.000000
  0.081284  0.055708  0.016377      4.000000
  0.093789  0.055708  0.016372      4.000000
  0.106294  0.055708  0.016367      4.000000
  0.118799  0.055708  0.016361      4.000000
  0.131305  0.055708  0.016356      4.000000
  0.143810  0.055708  0.016350      4.000000
  0.156315  0.055708  0.016345      4.000000
  0.168820  0.055708  0.016339      4.000000
 -0.168820  0.055708  0.016487      4.000000
 -0.156315  0.055708  0.016481      4.000000
 -0.143810  0.055708  0.016476      4.000000
 -0.131305  0.055708  0.016471      4.000000
 -0.118799  0.055708  0.016465      4.000000
 -0.106294  0.055708  0.016460      4.000000
 -0.093789  0.055708  0.016454      4.000000
 -0.081284  0.055708  0.016449      4.000000
 -0.068779  0.055708  0.016443      4.000000
 -0.056273  0.055708  0.016438      4.000000
 -0.043768  0.055708  0.016432      4.000000
 -0.031263  0.055708  0.016427      4.000000
 -0.018758  0.055708  0.016421      4.000000
 -0.006253  0.055708  0.016416      4.000000
  0.006253  0.068087  0.016410      4.000000
  0.018758  0.068087  0.016405      4.000000
  0.031263  0.068087  0.016399      4.000000
  0.043768  0.068087  0.016394      4.000000
  0.056273  0.068087  0.016388      4.000000
  0.068779  0.068087  0.016383      4.000000
  0.081284  0.068087  0.016377      4.000000
  0.093789  0.068087  0.016372      4.000000
  0.106294  0.068087  0.016367      4.000000
  0.118799  0.068087  0.016361      4.000000
  0.131305  0.068087  0.016356      4.000000
  0.143810  0.068087  0.016350      4.000000
  0.156315  0.068087  0.016345      4.000000
  0.168820  0.068087  0.016339      4.000000
 -0.168820  0.068087  0.016487      4.000000
 -0.156315  0.068087  0.016481      4.000000
 -0.143810  0.068087  0.016476      4.000000
 -0.131305  0.068087  0.016471      4.000000
 -0.118799  0.068087  0.016465      4.000000
 -0.106294  0.068087  0.016460      4.000000
 -0.093789  0.068087  0.016454      4.000000
 -0.081284  0.068087  0.016449      4.000000
 -0.068779  0.068087  0.016443      4.000000
 -0.056273  0.068087  0.016438      4.000000
 -0.043768  0.068087  0.016432      4.000000
 -0.031263  0.068087  0.016427      4.000000
 -0.018758  0.068087  0.016421      4.000000
 -0.006253  0.068087  0.016416      4.000000
  0.006253  0.080467  0.016410      4.000000
  0.018758  0.080467  0.016405      4.000000
  0.031263  0.080467  0.016399      4.000000
  0.043768  0.080467  0.016394      4.000000
  0.056273  0.080467  0.016388      4.000000
  0.068779  0.080467  0.016383      4.000000
  0.081284  0.080467  0.016377      4.000000
  0.093789  0.080467  0.016372      4.000000
  0.106294  0.080467  0.016367      4.000000
  0.118799  0.080467  0.016361      4.000000
  0.131305  0.080467  0.016356      4.000000
  0.143810  0.080467  0.016350      4.000000
  0.156315  0.080467  0.016345      4.000000
  0.168820  0.080467  0.016339      4.000000
 -0.168820  0.080467  0.016487      4.000000
 -0.156315  0.080467  0.016481      4.000000
 -0.143810  0.080467  0.016476      4.000000
 -0.131305  0.080467  0.016471      4.000000
 -0.118799  0.080467  0.016465      4.000000
 -0.106294  0.080467  0.016460      4.000000
 -0.093789  0.080467  0.016454      4.000000
 -0.081284  0.080467  0.016449      4.000000
 -0.068779  0.080467  0.016443      4.000000
 -0.056273  0.080467  0.016438      4.000000
 -0.043768  0.080467  0.016432      4.000000
 -0.031263  0.080467  0.016427      4.000000
 -0.018758  0.080467  0.016421      4.000000
 -0.006253  0.080467  0.016416      4.000000
  0.006253  0.092846  0.016410      4.000000
  0.018758  0.092846  0.016405      4.000000
  0.031263  0.092846  0.016399      4.000000
  0.043768  0.092846  0.016394      4.000000
  0.056273  0.092846  0.016388      4.000000
  0.068779  0.092846  0.016383      4.000000
  0.081284  0.092846  0.016377      4.000000
  0.093789  0.092846  0.016372      4.000000
  0.106294  0.092846  0.016367      4.000000
  0.118799  0.092846  0.016361      4.000000
  0.131305  0.092846  0.016356      4.000000
  0.143810  0.092846  0.016350      4.000000
  0.156315  0.092846  0.016345      4.000000
  0.168820  0.092846  0.016339      4.000000
 -0.168820  0.092846  0.016487      4.000000
 -0.156315  0.092846  0.016481      4.000000
 -0.143810  0.092846  0.016476      4.000000
 -0.131305  0.092846  0.016471      4.000000
 -0.118799  0.092846  0.016465      4.000000
 -0.106294  0.092846  0.016460      4.000000
 -0.093789  0.092846  0.016454      4.000000
 -0.081284  0.092846  0.016449      4.000000
 -0.068779  0.092846  0.016443      4.000000
 -0.056273  0.092846  0.016438      4.000000
 -0.043768  0.092846  0.016432      4.000000
 -0.031263  0.092846  0.016427      4.000000
 -0.018758  0.092846  0.016421      4.000000
 -0.006253  0.092846  0.016416      4.000000
  0.006253  0.105226  0.016410      4.000000
  0.018758  0.105226  0.016405      4.000000
  0.031263  0.105226  0.016399      4.000000
  0.043768  0.105226  0.016394      4.000000
  0.056273  0.105226  0.016388      4.000000
  0.068779  0.105226  0.016383      4.000000
  0.081284  0.105226  0.016377      4.000000
  0.093789  0.105226  0.016372      4.000000
  0.106294  0.105226  0.016367      4.000000
  0.118799  0.105226  0.016361      4.000000
  0.131305  0.105226  0.016356      4.000000
  0.143810  0.105226  0.016350      4.000000
  0.156315  0.105226  0.016345      4.000000
  0.168820  0.105226  0.016339      4.000000
 -0.168820  0.105226  0.016487      4.000000
 -0.156315  0.105226  0.016481      4.000000
 -0.143810  0.105226  0.016476      4.000000
 -0.131305  0.105226  0.016471      4.000000
 -0.118799  0.105226  0.016465      4.000000
 -0.106294  0.105226  0.016460      4.000000
 -0.093789  0.105226  0.016454      4.000000
 -0.081284  0.105226  0.016449      4.000000
 -0.068779  0.105226  0.016443      4.000000
 -0.056273  0.105226  0.016438      4.000000
 -0.043768  0.105226  0.016432      4.000000
 -0.031263  0.105226  0.016427      4.000000
 -0.018758  0.105226  0.016421      4.000000
 -0.006253  0.105226  0.016416      4.000000
  0.006253  0.117605  0.016410      4.000000
  0.018758  0.117605  0.016405      4.000000
  0.031263  0.117605  0.016399      4.000000
  0.043768  0.117605  0.016394      4.000000
  0.056273  0.117605  0.016388      4.000000
  0.068779  0.117605  0.016383      4.000000
  0.081284  0.117605  0.016377      4.000000
  0.093789  0.117605  0.016372      4.000000
  0.106294  0.117605  0.016367      4.000000
  0.118799  0.117605  0.016361      4.000000
  0.131305  0.117605  0.016356      4.000000
  0.143810  0.117605  0.016350      4.000000
  0.156315  0.117605  0.016345      4.000000
  0.168820  0.117605  0.016339      4.000000
 -0.168820  0.117605  0.016487      4.000000
 -0.156315  0.117605  0.016481      4.000000
 -0.143810  0.117605  0.016476      4.000000
 -0.131305  0.117605  0.016471      4.000000
 -0.118799  0.117605  0.016465      4.000000
 -0.106294  0.117605  0.016460      4.000000
 -0.093789  0.117605  0.016454      4.000000
 -0.081284  0.117605  0.016449      4.000000
 -0.068779  0.117605  0.016443      4.000000
 -0.056273  0.117605  0.016438      4.000000
 -0.043768  0.117605  0.016432      4.000000
 -0.031263  0.117605  0.016427      4.000000
 -0.018758  0.117605  0.016421      4.000000
 -0.006253  0.117605  0.016416      4.000000
 


--------------------------------------------------------------------------------------------------------




 Dimension of arrays:
   k-points           NKPTS =    560   k-points in BZ     NKDIM =    560   number of bands    NBANDS=     32
   number of dos      NEDOS =    301   number of ions     NIONS =      8
   non local maximal  LDIM  =      4   non local SUM 2l+1 LMDIM =      8
   total plane-waves  NPLWV =  84000
   max r-space proj   IRMAX =   3562   max aug-charges    IRDMAX=  12603
   dimension x,y,z NGX =    20 NGY =   28 NGZ =  150
   dimension x,y,z NGXF=    40 NGYF=   56 NGZF=  300
   support grid    NGXF=    40 NGYF=   56 NGZF=  300
   ions per type =               8
   NGX,Y,Z   is equivalent  to a cutoff of  11.64, 11.53, 10.91 a.u.
   NGXF,Y,Z  is equivalent  to a cutoff of  23.28, 23.05, 21.83 a.u.

 SYSTEM =  Al fcc relaxation                       
 POSCAR =  Al8                                     

 Startparameter for this run:
   NWRITE =      2    write-flag & timer
   PREC   = accura    normal or accurate (medium, high low for compatibility)
   ISTART =      0    job   : 0-new  1-cont  2-samecut
   ICHARG =      2    charge: 1-file 2-atom 10-const
   ISPIN  =      1    spin polarized calculation?
   LNONCOLLINEAR =      F non collinear calculations
   LSORBIT =      F    spin-orbit coupling
   INIWAV =      1    electr: 0-lowe 1-rand  2-diag
   LASPH  =      F    aspherical Exc in radial PAW
   METAGGA=      F    non-selfconsistent MetaGGA calc.

 Electronic Relaxation 1
   ENCUT  =  400.0 eV  29.40 Ry    5.42 a.u.   4.66  6.59 37.26*2*pi/ulx,y,z
   ENINI  =  400.0     initial cutoff
   ENAUG  =  291.1 eV  augmentation charge cutoff
   NELM   =     60;   NELMIN=  4; NELMDL= -5     # of ELM steps 
   EDIFF  = 0.1E-05   stopping-criterion for ELM
   LREAL  =      T    real-space projection
   NLSPLINE    = F    spline interpolate recip. space projectors
   LCOMPAT=      F    compatible to vasp.4.4
   GGA_COMPAT  = T    GGA compatible to vasp.4.4-vasp.4.6
   LMAXPAW     = -100 max onsite density
   LMAXMIX     =    2 max onsite mixed and CHGCAR
   VOSKOWN=      0    Vosko Wilk Nusair interpolation
   ROPT   =   -0.00025
 Ionic relaxation
   EDIFFG = 0.1E-04   stopping-criterion for IOM
   NSW    =      0    number of steps for IOM
   NBLOCK =      1;   KBLOCK =      1    inner block; outer block 
   IBRION =     -1    ionic relax: 0-MD 1-quasi-New 2-CG
   NFREE  =      1    steps in history (QN), initial steepest desc. (CG)
   ISIF   =      3    stress and relaxation
   IWAVPR =     10    prediction:  0-non 1-charg 2-wave 3-comb
   ISYM   =      2    0-nonsym 1-usesym 2-fastsym
   LCORR  =      T    Harris-Foulkes like correction to forces

   POTIM  = 0.5000    time-step for ionic-motion
   TEIN   =    0.0    initial temperature
   TEBEG  =    0.0;   TEEND  =   0.0 temperature during run
   SMASS  =  -3.00    Nose mass-parameter (am)
   estimated Nose-frequenzy (Omega)   =  0.10E-29 period in steps =****** mass=  -0.186E-27a.u.
   SCALEE = 1.0000    scale energy and forces
   NPACO  =    256;   APACO  = 16.0  distance and # of slots for P.C.
   PSTRESS=    0.0 pullay stress

  Mass of Ions in am
   POMASS =  26.98
  Ionic Valenz
   ZVAL   =   3.00
  Atomic Wigner-Seitz radii
   RWIGS  =  -1.00
  virtual crystal weights 
   VCA    =   1.00
   NELECT =      24.0000    total number of electrons
   NUPDOWN=      -1.0000    fix difference up-down

 DOS related values:
   EMIN   =  10.00;   EMAX   =-10.00  energy-range for DOS
   EFERMI =   0.00
   ISMEAR =     1;   SIGMA  =   0.20  broadening in eV -4-tet -1-fermi 0-gaus

 Electronic relaxation 2 (details)
   IALGO  =     68    algorithm
   LDIAG  =      T    sub-space diagonalisation (order eigenvalues)
   LSUBROT=      F    optimize rotation matrix (better conditioning)
   TURBO    =      0    0=normal 1=particle mesh
   IRESTART =      0    0=no restart 2=restart with 2 vectors
   NREBOOT  =      0    no. of reboots
   NMIN     =      0    reboot dimension
   EREF     =   0.00    reference energy to select bands
   IMIX   =      4    mixing-type and parameters
     AMIX     =   0.40;   BMIX     =  1.00
     AMIX_MAG =   1.60;   BMIX_MAG =  1.00
     AMIN     =   0.10
     WC   =   100.;   INIMIX=   1;  MIXPRE=   1;  MAXMIX= -45

 Intra band minimization:
   WEIMIN = 0.0000     energy-eigenvalue tresh-hold
   EBREAK =  0.78E-08  absolut break condition
   DEPER  =   0.30     relativ break condition  

   TIME   =   0.40     timestep for ELM

  volume/ion in A,a.u.               =      32.94       222.31
  Fermi-wavevector in a.u.,A,eV,Ry     =   0.736533  1.391846  7.380903  0.542481
  Thomas-Fermi vector in A             =   1.829996
 
 Write flags
   LWAVE        =      F    write WAVECAR
   LDOWNSAMPLE  =      F    k-point downsampling of WAVECAR
   LCHARG       =      F    write CHGCAR
   LVTOT        =      F    write LOCPOT, total local potential
   LVHAR        =      F    write LOCPOT, Hartree potential only
   LELF         =      F    write electronic localiz. function (ELF)
   LORBIT       =      0    0 simple, 1 ext, 2 COOP (PROOUT), +10 PAW based schemes


 Dipole corrections
   LMONO  =      F    monopole corrections only (constant potential shift)
   LDIPOL =      F    correct potential (dipole corrections)
   IDIPOL =      0    1-x, 2-y, 3-z, 4-all directions 
   EPSILON=  1.0000000 bulk dielectric constant

 Exchange correlation treatment:
   GGA     =    --    GGA type
   LEXCH   =     8    internal setting for exchange type
   VOSKOWN=      0    Vosko Wilk Nusair interpolation
   LHFCALC =     F    Hartree Fock is set to
   LHFONE  =     F    Hartree Fock one center treatment
   AEXX    =    0.0000 exact exchange contribution

 Linear response parameters
   LEPSILON=     F    determine dielectric tensor
   LRPA    =     F    only Hartree local field effects (RPA)
   LNABLA  =     F    use nabla operator in PAW spheres
   LVEL    =     F    velocity operator in full k-point grid
   LINTERFAST=   F  fast interpolation
   KINTER  =     0    interpolate to denser k-point grid
   CSHIFT  =0.1000    complex shift for real part using Kramers Kronig
   OMEGAMAX=  -1.0    maximum frequency
   DEG_THRESHOLD= 0.2000000E-02 threshold for treating states as degnerate
   RTIME   =   -0.100 relaxation time in fs
  (WPLASMAI=    0.000 imaginary part of plasma frequency in eV, 0.658/RTIME)
   DFIELD  = 0.0000000 0.0000000 0.0000000 field for delta impulse in time
 
 Orbital magnetization related:
   ORBITALMAG=     F  switch on orbital magnetization
   LCHIMAG   =     F  perturbation theory with respect to B field
   DQ        =  0.001000  dq finite difference perturbation B field
   LLRAUG    =     F  two centre corrections for induced B field



--------------------------------------------------------------------------------------------------------


 Static calculation
 charge density and potential will be updated during run
 non-spin polarized calculation
 RMM-DIIS sequential band-by-band and
  variant of blocked Davidson during initial phase
 perform sub-space diagonalisation
    before iterative eigenvector-optimisation
 modified Broyden-mixing scheme, WC =      100.0
 initial mixing is a Kerker type mixing with AMIX =  0.4000 and BMIX =      1.0000
 Hartree-type preconditioning will be used
 using additional bands           20
 real space projection scheme for non local part
 use partial core corrections
 calculate Harris-corrections to forces 
   (improved forces if not selfconsistent)
 use gradient corrections 
 use of overlap-Matrix (Vanderbilt PP)
 Methfessel and Paxton  Order N= 1 SIGMA  =   0.20


--------------------------------------------------------------------------------------------------------


  energy-cutoff  :      400.00
  volume of cell :      263.55
      direct lattice vectors                 reciprocal lattice vectors
     2.855954575  0.000000000  0.000000000     0.350145625  0.000000000 -0.000153252
    -0.000000000  4.038929693  0.000000000     0.000000000  0.247590346  0.000000000
     0.010000000  0.000000000 22.847636598    -0.000000000 -0.000000000  0.043768203

  length of vectors
     2.855954575  4.038929693 22.847638787     0.350145659  0.247590346  0.043768203


 
 k-points in units of 2pi/SCALE and weight: Automatic kpoint scheme                 
   0.00625260  0.00618976  0.00546829       0.002
   0.01875780  0.00618976  0.00546282       0.002
   0.03126300  0.00618976  0.00545734       0.002
   0.04376820  0.00618976  0.00545187       0.002
   0.05627340  0.00618976  0.00544640       0.002
   0.06877860  0.00618976  0.00544092       0.002
   0.08128381  0.00618976  0.00543545       0.002
   0.09378901  0.00618976  0.00542998       0.002
   0.10629421  0.00618976  0.00542450       0.002
   0.11879941  0.00618976  0.00541903       0.002
   0.13130461  0.00618976  0.00541356       0.002
   0.14380981  0.00618976  0.00540808       0.002
   0.15631501  0.00618976  0.00540261       0.002
   0.16882021  0.00618976  0.00539714       0.002
  -0.16882021  0.00618976  0.00554491       0.002
  -0.15631501  0.00618976  0.00553944       0.002
  -0.14380981  0.00618976  0.00553397       0.002
  -0.13130461  0.00618976  0.00552850       0.002
  -0.11879941  0.00618976  0.00552302       0.002
  -0.10629421  0.00618976  0.00551755       0.002
  -0.09378901  0.00618976  0.00551208       0.002
  -0.08128381  0.00618976  0.00550660       0.002
  -0.06877860  0.00618976  0.00550113       0.002
  -0.05627340  0.00618976  0.00549566       0.002
  -0.04376820  0.00618976  0.00549018       0.002
  -0.03126300  0.00618976  0.00548471       0.002
  -0.01875780  0.00618976  0.00547924       0.002
  -0.00625260  0.00618976  0.00547376       0.002
   0.00625260  0.01856928  0.00546829       0.002
   0.01875780  0.01856928  0.00546282       0.002
   0.03126300  0.01856928  0.00545734       0.002
   0.04376820  0.01856928  0.00545187       0.002
   0.05627340  0.01856928  0.00544640       0.002
   0.06877860  0.01856928  0.00544092       0.002
   0.08128381  0.01856928  0.00543545       0.002
   0.09378901  0.01856928  0.00542998       0.002
   0.10629421  0.01856928  0.00542450       0.002
   0.11879941  0.01856928  0.00541903       0.002
   0.13130461  0.01856928  0.00541356       0.002
   0.14380981  0.01856928  0.00540808       0.002
   0.15631501  0.01856928  0.00540261       0.002
   0.16882021  0.01856928  0.00539714       0.002
  -0.16882021  0.01856928  0.00554491       0.002
  -0.15631501  0.01856928  0.00553944       0.002
  -0.14380981  0.01856928  0.00553397       0.002
  -0.13130461  0.01856928  0.00552850       0.002
  -0.11879941  0.01856928  0.00552302       0.002
  -0.10629421  0.01856928  0.00551755       0.002
  -0.09378901  0.01856928  0.00551208       0.002
  -0.08128381  0.01856928  0.00550660       0.002
  -0.06877860  0.01856928  0.00550113       0.002
  -0.05627340  0.01856928  0.00549566       0.002
  -0.04376820  0.01856928  0.00549018       0.002
  -0.03126300  0.01856928  0.00548471       0.002
  -0.01875780  0.01856928  0.00547924       0.002
  -0.00625260  0.01856928  0.00547376       0.002
   0.00625260  0.03094879  0.00546829       0.002
   0.01875780  0.03094879  0.00546282       0.002
   0.03126300  0.03094879  0.00545734       0.002
   0.04376820  0.03094879  0.00545187       0.002
   0.05627340  0.03094879  0.00544640       0.002
   0.06877860  0.03094879  0.00544092       0.002
   0.08128381  0.03094879  0.00543545       0.002
   0.09378901  0.03094879  0.00542998       0.002
   0.10629421  0.03094879  0.00542450       0.002
   0.11879941  0.03094879  0.00541903       0.002
   0.13130461  0.03094879  0.00541356       0.002
   0.14380981  0.03094879  0.00540808       0.002
   0.15631501  0.03094879  0.00540261       0.002
   0.16882021  0.03094879  0.00539714       0.002
  -0.16882021  0.03094879  0.00554491       0.002
  -0.15631501  0.03094879  0.00553944       0.002
  -0.14380981  0.03094879  0.00553397       0.002
  -0.13130461  0.03094879  0.00552850       0.002
  -0.11879941  0.03094879  0.00552302       0.002
  -0.10629421  0.03094879  0.00551755       0.002
  -0.09378901  0.03094879  0.00551208       0.002
  -0.08128381  0.03094879  0.00550660       0.002
  -0.06877860  0.03094879  0.00550113       0.002
  -0.05627340  0.03094879  0.00549566       0.002
  -0.04376820  0.03094879  0.00549018       0.002
  -0.03126300  0.03094879  0.00548471       0.002
  -0.01875780  0.03094879  0.00547924       0.002
  -0.00625260  0.03094879  0.00547376       0.002
   0.00625260  0.04332831  0.00546829       0.002
   0.01875780  0.04332831  0.00546282       0.002
   0.03126300  0.04332831  0.00545734       0.002
   0.04376820  0.04332831  0.00545187       0.002
   0.05627340  0.04332831  0.00544640       0.002
   0.06877860  0.04332831  0.00544092       0.002
   0.08128381  0.04332831  0.00543545       0.002
   0.09378901  0.04332831  0.00542998       0.002
   0.10629421  0.04332831  0.00542450       0.002
   0.11879941  0.04332831  0.00541903       0.002
   0.13130461  0.04332831  0.00541356       0.002
   0.14380981  0.04332831  0.00540808       0.002
   0.15631501  0.04332831  0.00540261       0.002
   0.16882021  0.04332831  0.00539714       0.002
  -0.16882021  0.04332831  0.00554491       0.002
  -0.15631501  0.04332831  0.00553944       0.002
  -0.14380981  0.04332831  0.00553397       0.002
  -0.13130461  0.04332831  0.00552850       0.002
  -0.11879941  0.04332831  0.00552302       0.002
  -0.10629421  0.04332831  0.00551755       0.002
  -0.09378901  0.04332831  0.00551208       0.002
  -0.08128381  0.04332831  0.00550660       0.002
  -0.06877860  0.04332831  0.00550113       0.002
  -0.05627340  0.04332831  0.00549566       0.002
  -0.04376820  0.04332831  0.00549018       0.002
  -0.03126300  0.04332831  0.00548471       0.002
  -0.01875780  0.04332831  0.00547924       0.002
  -0.00625260  0.04332831  0.00547376       0.002
   0.00625260  0.05570783  0.00546829       0.002
   0.01875780  0.05570783  0.00546282       0.002
   0.03126300  0.05570783  0.00545734       0.002
   0.04376820  0.05570783  0.00545187       0.002
   0.05627340  0.05570783  0.00544640       0.002
   0.06877860  0.05570783  0.00544092       0.002
   0.08128381  0.05570783  0.00543545       0.002
   0.09378901  0.05570783  0.00542998       0.002
   0.10629421  0.05570783  0.00542450       0.002
   0.11879941  0.05570783  0.00541903       0.002
   0.13130461  0.05570783  0.00541356       0.002
   0.14380981  0.05570783  0.00540808       0.002
   0.15631501  0.05570783  0.00540261       0.002
   0.16882021  0.05570783  0.00539714       0.002
  -0.16882021  0.05570783  0.00554491       0.002
  -0.15631501  0.05570783  0.00553944       0.002
  -0.14380981  0.05570783  0.00553397       0.002
  -0.13130461  0.05570783  0.00552850       0.002
  -0.11879941  0.05570783  0.00552302       0.002
  -0.10629421  0.05570783  0.00551755       0.002
  -0.09378901  0.05570783  0.00551208       0.002
  -0.08128381  0.05570783  0.00550660       0.002
  -0.06877860  0.05570783  0.00550113       0.002
  -0.05627340  0.05570783  0.00549566       0.002
  -0.04376820  0.05570783  0.00549018       0.002
  -0.03126300  0.05570783  0.00548471       0.002
  -0.01875780  0.05570783  0.00547924       0.002
  -0.00625260  0.05570783  0.00547376       0.002
   0.00625260  0.06808735  0.00546829       0.002
   0.01875780  0.06808735  0.00546282       0.002
   0.03126300  0.06808735  0.00545734       0.002
   0.04376820  0.06808735  0.00545187       0.002
   0.05627340  0.06808735  0.00544640       0.002
   0.06877860  0.06808735  0.00544092       0.002
   0.08128381  0.06808735  0.00543545       0.002
   0.09378901  0.06808735  0.00542998       0.002
   0.10629421  0.06808735  0.00542450       0.002
   0.11879941  0.06808735  0.00541903       0.002
   0.13130461  0.06808735  0.00541356       0.002
   0.14380981  0.06808735  0.00540808       0.002
   0.15631501  0.06808735  0.00540261       0.002
   0.16882021  0.06808735  0.00539714       0.002
  -0.16882021  0.06808735  0.00554491       0.002
  -0.15631501  0.06808735  0.00553944       0.002
  -0.14380981  0.06808735  0.00553397       0.002
  -0.13130461  0.06808735  0.00552850       0.002
  -0.11879941  0.06808735  0.00552302       0.002
  -0.10629421  0.06808735  0.00551755       0.002
  -0.09378901  0.06808735  0.00551208       0.002
  -0.08128381  0.06808735  0.00550660       0.002
  -0.06877860  0.06808735  0.00550113       0.002
  -0.05627340  0.06808735  0.00549566       0.002
  -0.04376820  0.06808735  0.00549018       0.002
  -0.03126300  0.06808735  0.00548471       0.002
  -0.01875780  0.06808735  0.00547924       0.002
  -0.00625260  0.06808735  0.00547376       0.002
   0.00625260  0.08046686  0.00546829       0.002
   0.01875780  0.08046686  0.00546282       0.002
   0.03126300  0.08046686  0.00545734       0.002
   0.04376820  0.08046686  0.00545187       0.002
   0.05627340  0.08046686  0.00544640       0.002
   0.06877860  0.08046686  0.00544092       0.002
   0.08128381  0.08046686  0.00543545       0.002
   0.09378901  0.08046686  0.00542998       0.002
   0.10629421  0.08046686  0.00542450       0.002
   0.11879941  0.08046686  0.00541903       0.002
   0.13130461  0.08046686  0.00541356       0.002
   0.14380981  0.08046686  0.00540808       0.002
   0.15631501  0.08046686  0.00540261       0.002
   0.16882021  0.08046686  0.00539714       0.002
  -0.16882021  0.08046686  0.00554491       0.002
  -0.15631501  0.08046686  0.00553944       0.002
  -0.14380981  0.08046686  0.00553397       0.002
  -0.13130461  0.08046686  0.00552850       0.002
  -0.11879941  0.08046686  0.00552302       0.002
  -0.10629421  0.08046686  0.00551755       0.002
[...]
     31       9.8696      0.00000
     32      10.0145      0.00000

 k-point   551 :      -0.3393    0.4750    0.3750
  band No.  band energies     occupation 
      1      -4.7931      2.00000
      2      -4.3581      2.00000
      3      -4.0576      2.00000
      4      -3.6369      2.00000
      5      -2.8653      2.00000
      6      -2.4700      2.00000
      7      -1.2528      2.00000
      8      -0.8756      2.00000
      9       0.5000      2.00000
     10       0.7629      2.00000
     11       0.8391      2.00000
     12       1.1891      2.00000
     13       1.4726      2.00157
     14       1.8127      2.01710
     15       2.4583     -0.00452
     16       2.7217     -0.00000
     17       3.0933     -0.00000
     18       3.3471     -0.00000
     19       4.4816     -0.00000
     20       4.7526     -0.00000
     21       5.1551     -0.00000
     22       5.4064     -0.00000
     23       6.1096     -0.00000
     24       6.3878     -0.00000
     25       7.2992     -0.00000
     26       7.6051      0.00000
     27       8.2769      0.00000
     28       8.5016      0.00000
     29       9.0416      0.00000
     30       9.4279      0.00000
     31      10.5307      0.00000
     32      10.6597      0.00000

 k-point   552 :      -0.3036    0.4750    0.3750
  band No.  band energies     occupation 
      1      -5.1980      2.00000
      2      -4.7617      2.00000
      3      -4.4604      2.00000
      4      -4.0385      2.00000
      5      -3.2640      2.00000
      6      -2.8676      2.00000
      7      -1.6434      2.00000
      8      -1.2654      2.00000
      9       0.1403      2.00000
     10       0.4732      2.00000
     11       1.5754      2.01263
     12       1.9961      0.94441
     13       2.1304      0.07724
     14       2.1446      0.03315
     15       2.6884     -0.00001
     16       2.7978     -0.00000
     17       3.5978     -0.00000
     18       3.8661     -0.00000
     19       4.8073     -0.00000
     20       4.9362     -0.00000
     21       5.3333     -0.00000
     22       5.7117     -0.00000
     23       6.6200     -0.00000
     24       6.8783     -0.00000
     25       7.1856     -0.00000
     26       7.5253      0.00000
     27       8.5658      0.00000
     28       8.9115      0.00000
     29       9.1158      0.00000
     30       9.3716      0.00000
     31      11.1729      0.00000
     32      11.2105      0.00000

 k-point   553 :      -0.2679    0.4750    0.3750
  band No.  band energies     occupation 
      1      -5.5589      2.00000
      2      -5.1216      2.00000
      3      -4.8195      2.00000
      4      -4.3966      2.00000
      5      -3.6200      2.00000
      6      -3.2225      2.00000
      7      -1.9946      2.00000
      8      -1.6160      2.00000
      9      -0.1957      2.00000
     10       0.1383      2.00000
     11       1.8999      1.68061
     12       2.1467      0.02732
     13       2.4443     -0.00599
     14       2.8342     -0.00000
     15       3.1612     -0.00000
     16       3.4962     -0.00000
     17       4.2071     -0.00000
     18       4.2087     -0.00000
     19       4.9115     -0.00000
     20       5.0318     -0.00000
     21       6.1160     -0.00000
     22       6.4320     -0.00000
     23       6.5311     -0.00000
     24       6.7597     -0.00000
     25       7.8279      0.00000
     26       8.1301      0.00000
     27       8.2753      0.00000
     28       8.6367      0.00000
     29       9.1804      0.00000
     30       9.8128      0.00000
     31      10.0424      0.00000
     32      11.0200      0.00000

 k-point   554 :      -0.2321    0.4750    0.3750
  band No.  band energies     occupation 
      1      -5.8755      2.00000
      2      -5.4372      2.00000
      3      -5.1346      2.00000
      4      -4.7107      2.00000
      5      -3.9326      2.00000
      6      -3.5342      2.00000
      7      -2.3043      2.00000
      8      -1.9252      2.00000
      9      -0.4946      2.00000
     10      -0.1599      2.00000
     11       1.6415      2.03367
     12       1.9022      1.66666
     13       3.2903     -0.00000
     14       3.5299     -0.00000
     15       3.8203     -0.00000
     16       3.9392     -0.00000
     17       4.3911     -0.00000
     18       4.6391     -0.00000
     19       5.4671     -0.00000
     20       5.7336     -0.00000
     21       6.2659     -0.00000
     22       6.5592     -0.00000
     23       6.9734     -0.00000
     24       7.3182     -0.00000
     25       7.9659      0.00000
     26       8.3478      0.00000
     27       8.6678      0.00000
     28       8.8710      0.00000
     29       8.9705      0.00000
     30      10.6695      0.00000
     31      10.7545      0.00000
     32      10.8959      0.00000

 k-point   555 :      -0.1964    0.4750    0.3750
  band No.  band energies     occupation 
      1      -6.1474      2.00000
      2      -5.7082      2.00000
      3      -5.4053      2.00000
      4      -4.9806      2.00000
      5      -4.2013      2.00000
      6      -3.8020      2.00000
      7      -2.5712      2.00000
      8      -2.1918      2.00000
      9      -0.7529      2.00000
     10      -0.4179      2.00000
     11       1.3992      2.00024
     12       1.6642      2.04367
     13       3.5446     -0.00000
     14       3.7511     -0.00000
     15       4.2848     -0.00000
     16       4.6472     -0.00000
     17       5.0717     -0.00000
     18       5.3039     -0.00000
     19       6.0604     -0.00000
     20       6.1851     -0.00000
     21       6.4450     -0.00000
     22       6.8284     -0.00000
     23       7.6011      0.00000
     24       7.9552      0.00000
     25       7.9830      0.00000
     26       8.3583      0.00000
     27       8.5822      0.00000
     28       9.0095      0.00000
     29       9.5573      0.00000
     30       9.8358      0.00000
     31      10.5458      0.00000
     32      11.0679      0.00000

 k-point   556 :      -0.1607    0.4750    0.3750
  band No.  band energies     occupation 
      1      -6.3744      2.00000
      2      -5.9345      2.00000
      3      -5.6313      2.00000
      4      -5.2059      2.00000
      5      -4.4258      2.00000
      6      -4.0257      2.00000
      7      -2.7944      2.00000
      8      -2.4150      2.00000
      9      -0.9692      2.00000
     10      -0.6340      2.00000
     11       1.1913      2.00000
     12       1.4584      2.00112
     13       3.3918     -0.00000
     14       3.6257     -0.00000
     15       5.0435     -0.00000
     16       5.3829     -0.00000
     17       5.6781     -0.00000
     18       5.8107     -0.00000
     19       6.3974     -0.00000
     20       6.5723     -0.00000
     21       7.3176     -0.00000
     22       7.4842      0.00000
     23       7.6923      0.00000
     24       7.8726      0.00000
     25       8.3544      0.00000
     26       8.7795      0.00000
     27       8.8357      0.00000
     28       9.1726      0.00000
     29       9.4231      0.00000
     30      10.3395      0.00000
     31      10.4542      0.00000
     32      10.7546      0.00000

 k-point   557 :      -0.1250    0.4750    0.3750
  band No.  band energies     occupation 
      1      -6.5562      2.00000
      2      -6.1158      2.00000
      3      -5.8124      2.00000
      4      -5.3864      2.00000
      5      -4.6056      2.00000
      6      -4.2050      2.00000
      7      -2.9736      2.00000
      8      -2.5940      2.00000
      9      -1.1428      2.00000
     10      -0.8075      2.00000
     11       1.0226      2.00000
     12       1.2910      2.00001
     13       3.2441     -0.00000
     14       3.4823     -0.00000
     15       5.2672     -0.00000
     16       5.5477     -0.00000
     17       6.3179     -0.00000
     18       6.5852     -0.00000
     19       7.0370     -0.00000
     20       7.2628     -0.00000
     21       7.5233      0.00000
     22       7.9251      0.00000
     23       8.1809      0.00000
     24       8.2811      0.00000
     25       8.6062      0.00000
     26       8.6421      0.00000
     27       9.2142      0.00000
     28       9.7983      0.00000
     29      10.1025      0.00000
     30      10.2067      0.00000
     31      10.8628      0.00000
     32      11.3984      0.00000

 k-point   558 :      -0.0893    0.4750    0.3750
  band No.  band energies     occupation 
      1      -6.6928      2.00000
      2      -6.2519      2.00000
      3      -5.9484      2.00000
      4      -5.5219      2.00000
      5      -4.7407      2.00000
      6      -4.3397      2.00000
      7      -3.1083      2.00000
      8      -2.7287      2.00000
      9      -1.2732      2.00000
     10      -0.9380      2.00000
     11       0.8951      2.00000
     12       1.1644      2.00000
     13       3.1265     -0.00000
     14       3.3667     -0.00000
     15       5.2139     -0.00000
     16       5.4956     -0.00000
     17       6.9388     -0.00000
     18       7.1192     -0.00000
     19       7.4945      0.00000
     20       7.7143      0.00000
     21       8.0762      0.00000
     22       8.2440      0.00000
     23       8.4984      0.00000
     24       8.6441      0.00000
     25       9.0899      0.00000
     26       9.2671      0.00000
     27       9.6058      0.00000
     28      10.0697      0.00000
     29      10.6911      0.00000
     30      10.8317      0.00000
     31      11.0699      0.00000
     32      11.2836      0.00000

 k-point   559 :      -0.0536    0.4750    0.3750
  band No.  band energies     occupation 
      1      -6.7838      2.00000
      2      -6.3427      2.00000
      3      -6.0391      2.00000
      4      -5.6124      2.00000
      5      -4.8309      2.00000
      6      -4.4295      2.00000
      7      -3.1982      2.00000
      8      -2.8186      2.00000
      9      -1.3603      2.00000
     10      -1.0250      2.00000
     11       0.8097      2.00000
     12       1.0795      2.00000
     13       3.0461     -0.00000
     14       3.2874     -0.00000
     15       5.1525     -0.00000
     16       5.4364     -0.00000
     17       6.9248     -0.00000
     18       7.2860     -0.00000
     19       7.8151      0.00000
     20       8.2427      0.00000
     21       8.3996      0.00000
     22       8.7552      0.00000
     23       9.0376      0.00000
     24       9.2114      0.00000
     25       9.3963      0.00000
     26       9.5947      0.00000
     27       9.7639      0.00000
     28      10.0107      0.00000
     29      10.2879      0.00000
     30      10.6055      0.00000
     31      10.6935      0.00000
     32      11.2003      0.00000

 k-point   560 :      -0.0179    0.4750    0.3750
  band No.  band energies     occupation 
      1      -6.8294      2.00000
      2      -6.3881      2.00000
      3      -6.0845      2.00000
      4      -5.6576      2.00000
      5      -4.8760      2.00000
      6      -4.4744      2.00000
      7      -3.2432      2.00000
      8      -2.8636      2.00000
      9      -1.4039      2.00000
     10      -1.0686      2.00000
     11       0.7669      2.00000
     12       1.0369      2.00000
     13       3.0055     -0.00000
     14       3.2472     -0.00000
     15       5.1183     -0.00000
     16       5.4032     -0.00000
     17       6.8983     -0.00000
     18       7.2711     -0.00000
     19       7.8256      0.00000
     20       8.2592      0.00000
     21       8.8641      0.00000
     22       9.2234      0.00000
     23       9.3176      0.00000
     24       9.6363      0.00000
     25       9.6956      0.00000
     26       9.9423      0.00000
     27      10.0571      0.00000
     28      10.0791      0.00000
     29      10.4404      0.00000
     30      10.6159      0.00000
     31      11.1312      0.00000
     32      11.1381      0.00000


--------------------------------------------------------------------------------------------------------


 soft charge-density along one line, spin component           1
         0         1         2         3         4         5         6         7         8         9
 total charge-density along one line
 
 pseudopotential strength for first ion, spin component:           1
  8.649  14.750  -0.000  -0.000  -0.000  -0.000  -0.001  -0.000
 14.750  25.155  -0.000  -0.001  -0.000  -0.000  -0.002  -0.000
 -0.000  -0.000   1.979   0.000  -0.000   5.747   0.000  -0.000
 -0.000  -0.001   0.000   1.979   0.000   0.000   5.748   0.000
 -0.000  -0.000  -0.000   0.000   1.979  -0.000   0.000   5.748
 -0.000  -0.000   5.747   0.000  -0.000  16.583   0.000  -0.000
 -0.001  -0.002   0.000   5.748   0.000   0.000  16.584   0.000
 -0.000  -0.000  -0.000   0.000   5.748  -0.000   0.000  16.583
 total augmentation occupancy for first ion, spin component:           1
  3.231  -0.766   0.000   0.080   0.000   0.000  -0.012  -0.000
 -0.766   0.250   0.000  -0.042  -0.000   0.000   0.004   0.000
  0.000   0.000   1.130   0.000  -0.000  -0.072  -0.000   0.000
  0.080  -0.042   0.000   1.013  -0.000  -0.000  -0.062   0.000
  0.000  -0.000  -0.000  -0.000   1.082   0.000   0.000  -0.071
  0.000   0.000  -0.072  -0.000   0.000   0.005   0.000  -0.000
 -0.012   0.004  -0.000  -0.062   0.000   0.000   0.004  -0.000
 -0.000   0.000   0.000   0.000  -0.071  -0.000  -0.000   0.005


------------------------ aborting loop because EDIFF is reached ----------------------------------------


    CHARGE:  cpu time    1.5100: real time    1.5498
    FORLOC:  cpu time    0.0017: real time    0.0017
    FORNL :  cpu time    6.4822: real time    6.6575
    STRESS:  cpu time   19.4422: real time   20.1284
    FORCOR:  cpu time    0.0199: real time    0.0199
    FORHAR:  cpu time    0.0055: real time    0.0055
    MIXING:  cpu time    0.0014: real time    0.0014
    OFIELD:  cpu time    0.0000: real time    0.0000

  FORCE on cell =-STRESS in cart. coord.  units (eV):
  Direction    XX          YY          ZZ          XY          YZ          ZX
  --------------------------------------------------------------------------------------
  Alpha Z    -0.81566    -0.81566    -0.81566
  Ewald    1993.27073  1979.13138 -2368.75777    -0.00000     0.00000    -0.00786
  Hartree  2052.21104  2049.86605 -2049.31637    -0.00000     0.00000     0.00052
  E(xc)     -67.16713   -67.18481   -67.31347    -0.00000    -0.00000     0.00063
  Local   -4238.92215 -4221.80340  4226.07429    -0.00000    -0.00000     0.00845
  n-local   153.94948   152.76613   151.07060     0.00000    -0.00001    -0.00714
  augment    -8.78775    -8.74694    -8.69563     0.00000     0.00000     0.00039
  Kinetic   113.34469   115.39333   117.81437    -0.00000     0.00011    -0.00301
  Fock        0.00000     0.00000     0.00000     0.00000     0.00000     0.00000
  -------------------------------------------------------------------------------------
  Total      -2.91674    -1.39392     0.06039     0.00000    -0.00000    -0.00801
  in kB     -17.73167    -8.47404     0.36713     0.00000    -0.00000    -0.04868
  external pressure =       -8.61 kB  Pullay stress =        0.00 kB


 VOLUME and BASIS-vectors are now :
 -----------------------------------------------------------------------------
  energy-cutoff  :      400.00
  volume of cell :      263.55
      direct lattice vectors                 reciprocal lattice vectors
     2.855954575  0.000000000  0.000000000     0.350145625  0.000000000 -0.000153252
    -0.000000000  4.038929693  0.000000000     0.000000000  0.247590346  0.000000000
     0.010000000  0.000000000 22.847636598    -0.000000000 -0.000000000  0.043768203

  length of vectors
     2.855954575  4.038929693 22.847638787     0.350145659  0.247590346  0.043768203


 FORCES acting on ions
    electron-ion (+dipol)            ewald-force                    non-local-force                 convergence-correction
 -----------------------------------------------------------------------------------------------
   0.124E-02 -.513E-13 0.179E+03   -.992E-03 0.667E-14 -.178E+03   -.179E-03 0.000E+00 -.636E+00   0.420E-09 -.781E-16 0.573E-03
   -.128E-02 -.121E-13 0.236E+03   0.148E-02 0.103E-13 -.234E+03   0.592E-03 0.000E+00 -.135E+01   -.118E-08 0.238E-16 0.433E-03
   0.449E-03 -.440E-13 0.353E+02   -.297E-05 0.103E-14 -.353E+02   -.460E-03 0.000E+00 -.851E-01   0.332E-08 -.408E-15 0.867E-04
   -.677E-04 -.369E-13 0.106E+03   0.350E-04 0.488E-14 -.106E+03   0.164E-04 0.000E+00 -.126E-01   0.755E-10 0.267E-15 0.403E-03
   0.677E-04 -.576E-14 -.106E+03   -.350E-04 -.545E-14 0.106E+03   -.164E-04 0.000E+00 0.126E-01   -.755E-10 -.312E-15 -.403E-03
   -.449E-03 -.427E-13 -.353E+02   0.297E-05 -.160E-14 0.353E+02   0.460E-03 0.000E+00 0.851E-01   -.332E-08 0.423E-15 -.867E-04
   0.128E-02 0.103E-13 -.236E+03   -.148E-02 -.109E-13 0.234E+03   -.592E-03 0.000E+00 0.135E+01   0.118E-08 -.820E-16 -.433E-03
   -.124E-02 0.820E-14 -.179E+03   0.992E-03 -.724E-14 0.178E+03   0.179E-03 0.000E+00 0.636E+00   -.420E-09 0.169E-15 -.573E-03
 -----------------------------------------------------------------------------------------------
   -.609E-13 -.174E-12 0.621E-12   -.411E-14 -.228E-14 -.853E-13   0.000E+00 0.000E+00 0.000E+00   -.551E-16 0.276E-17 -.717E-12
 
 
 POSITION                                       TOTAL-FORCE (eV/Angst)
 -----------------------------------------------------------------------------------
      2.14290      0.00000      2.14197         0.000071      0.000000     -0.205123
      0.71430      2.01946      0.71399         0.000790      0.000000      0.162401
      2.14415      0.00000      4.99792        -0.000014      0.000000     -0.052218
      0.71555      2.01946      3.56994        -0.000016      0.000000     -0.036782
      2.14540      0.00000      7.85388         0.000016      0.000000      0.036782
      0.71680      2.01946      6.42590         0.000014      0.000000      0.052218
      2.14665      0.00000     10.70983        -0.000790      0.000000     -0.162401
      0.71805      2.01946      9.28185        -0.000071      0.000000      0.205123
 -----------------------------------------------------------------------------------
    total drift:                               -0.000000     -0.000000     -0.000000


--------------------------------------------------------------------------------------------------------



  FREE ENERGIE OF THE ION-ELECTRON SYSTEM (eV)
  ---------------------------------------------------
  free  energy   TOTEN  =       -28.53740499 eV

  energy  without entropy=      -28.53485397  energy(sigma->0) =      -28.53655465
 


--------------------------------------------------------------------------------------------------------


    POTLOK:  cpu time    0.0221: real time    0.0221


--------------------------------------------------------------------------------------------------------


     LOOP+:  cpu time  582.0385: real time  599.4944
    4ORBIT:  cpu time    0.0000: real time    0.0000

 total amount of memory used by VASP MPI-rank0    82659. kBytes
=======================================================================

   base      :      30000. kBytes
   nonlr-proj:       2409. kBytes
   fftplans  :       1370. kBytes
   grid      :       4988. kBytes
   one-center:         24. kBytes
   wavefun   :      43868. kBytes
 
  
  
 General timing and accounting informations for this job:
 ========================================================
  
                  Total CPU time used (sec):      593.297
                            User time (sec):      524.125
                          System time (sec):       69.173
                         Elapsed time (sec):      611.930
  
                   Maximum memory used (kb):      297232.
                   Average memory used (kb):           0.
  
                          Minor page faults:       233079
                          Major page faults:            2
                 Voluntary context switches:          287
