<?xml version="1.0" encoding="ISO-8859-1"?>
<modeling>
 <generator>
  <i name="program" type="string">vasp </i>
  <i name="version" type="string">5.4.4.18Apr17-6-g9f103f2a35  </i>
  <i name="subversion" type="string">(build Nov 07 2022 11:18:25) complex            parallel </i>
  <i name="platform" type="string">LinuxIFC </i>
  <i name="date" type="string">2024 05 28 </i>
  <i name="time" type="string">10:01:52 </i>
 </generator>
 <incar>
  <i type="string" name="SYSTEM"> Al fcc relaxation</i>
  <i type="string" name="PREC">accurate</i>
  <i type="string" name="ALGO"> Fast</i>
  <i type="int" name="NELM">    60</i>
  <i type="int" name="NELMIN">     4</i>
  <i type="int" name="IBRION">     2</i>
  <i name="EDIFF">      0.00000100</i>
  <i type="int" name="NSW">     0</i>
  <i type="int" name="ISIF">     3</i>
  <i name="ENCUT">    400.00000000</i>
  <i type="string" name="LREAL"> Auto</i>
  <i type="int" name="ISMEAR">     1</i>
  <i name="SIGMA">      0.20000000</i>
  <i name="KSPACING">      0.08000000</i>
  <i type="logical" name="LWAVE"> F  </i>
  <i type="logical" name="LCHARG"> F  </i>
  <v type="int" name="KPOINT_BSE">    -1     0     0     0</v>
  <i type="int" name="NELM">    60</i>
 </incar>
 <structure name="primitive_cell" >
  <crystal>
   <varray name="basis" >
    <v>       2.85595457       0.00000000       0.00000000 </v>
    <v>      -0.00000000       4.03892969       0.00000000 </v>
    <v>       0.01000000       0.00000000      22.84763660 </v>
   </varray>
   <i name="volume">    263.54748209 </i>
   <varray name="rec_basis" >
    <v>       0.35014563       0.00000000      -0.00015325 </v>
    <v>       0.00000000       0.24759035       0.00000000 </v>
    <v>      -0.00000000      -0.00000000       0.04376820 </v>
   </varray>
  </crystal>
  <varray name="positions" >
   <v>      -0.25000000       0.00000000       0.09375000 </v>
   <v>       0.25000000      -0.50000000       0.03125000 </v>
   <v>       0.25000000      -0.50000000       0.15625000 </v>
   <v>      -0.25000000       0.00000000       0.21875000 </v>
   <v>       0.25000000      -0.50000000       0.28125000 </v>
   <v>      -0.25000000       0.00000000       0.34375000 </v>
   <v>       0.25000000      -0.50000000       0.40625000 </v>
   <v>      -0.25000000       0.00000000       0.46875000 </v>
  </varray>
 </structure>
 <varray name="primitive_index" >
  <v type="int" >        1 </v>
  <v type="int" >        2 </v>
  <v type="int" >        4 </v>
  <v type="int" >        3 </v>
  <v type="int" >        6 </v>
  <v type="int" >        5 </v>
  <v type="int" >        8 </v>
  <v type="int" >        7 </v>
 </varray>
 <kpoints>
  <generation param="Monkhorst-Pack">
   <v type="int" name="divisions">      28       20        4 </v>
   <v name="usershift">      0.00000000       0.00000000       0.00000000 </v>
   <v name="genvec1">      0.03571429      -0.00000000       0.00000000 </v>
   <v name="genvec2">      0.00000000       0.05000000       0.00000000 </v>
   <v name="genvec3">      0.00000000       0.00000000       0.25000000 </v>
   <v name="shift">      0.50000000       0.50000000       0.50000000 </v>
  </generation>
  <varray name="kpointlist" >
   <v>       0.01785714       0.02500000       0.12500000 </v>
   <v>       0.05357143       0.02500000       0.12500000 </v>
   <v>       0.08928571       0.02500000       0.12500000 </v>
   <v>       0.12500000       0.02500000       0.12500000 </v>
   <v>       0.16071429       0.02500000       0.12500000 </v>
   <v>       0.19642857       0.02500000       0.12500000 </v>
   <v>       0.23214286       0.02500000       0.12500000 </v>
   <v>       0.26785714       0.02500000       0.12500000 </v>
   <v>       0.30357143       0.02500000       0.12500000 </v>
   <v>       0.33928571       0.02500000       0.12500000 </v>
   <v>       0.37500000       0.02500000       0.12500000 </v>
   <v>       0.41071429       0.02500000       0.12500000 </v>
   <v>       0.44642857       0.02500000       0.12500000 </v>
   <v>       0.48214286       0.02500000       0.12500000 </v>
   <v>      -0.48214286       0.02500000       0.12500000 </v>
   <v>      -0.44642857       0.02500000       0.12500000 </v>
   <v>      -0.41071429       0.02500000       0.12500000 </v>
   <v>      -0.37500000       0.02500000       0.12500000 </v>
   <v>      -0.33928571       0.02500000       0.12500000 </v>
   <v>      -0.30357143       0.02500000       0.12500000 </v>
   <v>      -0.26785714       0.02500000       0.12500000 </v>
   <v>      -0.23214286       0.02500000       0.12500000 </v>
   <v>      -0.19642857       0.02500000       0.12500000 </v>
   <v>      -0.16071429       0.02500000       0.12500000 </v>
   <v>      -0.12500000       0.02500000       0.12500000 </v>
   <v>      -0.08928571       0.02500000       0.12500000 </v>
   <v>      -0.05357143       0.02500000       0.12500000 </v>
   <v>      -0.01785714       0.02500000       0.12500000 </v>
   <v>       0.01785714       0.07500000       0.12500000 </v>
   <v>       0.05357143       0.07500000       0.12500000 </v>
   <v>       0.08928571       0.07500000       0.12500000 </v>
   <v>       0.12500000       0.07500000       0.12500000 </v>
   <v>       0.16071429       0.07500000       0.12500000 </v>
   <v>       0.19642857       0.07500000       0.12500000 </v>
   <v>       0.23214286       0.07500000       0.12500000 </v>
   <v>       0.26785714       0.07500000       0.12500000 </v>
   <v>       0.30357143       0.07500000       0.12500000 </v>
   <v>       0.33928571       0.07500000       0.12500000 </v>
   <v>       0.37500000       0.07500000       0.12500000 </v>
   <v>       0.41071429       0.07500000       0.12500000 </v>
   <v>       0.44642857       0.07500000       0.12500000 </v>
   <v>       0.48214286       0.07500000       0.12500000 </v>
   <v>      -0.48214286       0.07500000       0.12500000 </v>
   <v>      -0.44642857       0.07500000       0.12500000 </v>
   <v>      -0.41071429       0.07500000       0.12500000 </v>
   <v>      -0.37500000       0.07500000       0.12500000 </v>
   <v>      -0.33928571       0.07500000       0.12500000 </v>
   <v>      -0.30357143       0.07500000       0.12500000 </v>
   <v>      -0.26785714       0.07500000       0.12500000 </v>
   <v>      -0.23214286       0.07500000       0.12500000 </v>
   <v>      -0.19642857       0.07500000       0.12500000 </v>
   <v>      -0.16071429       0.07500000       0.12500000 </v>
   <v>      -0.12500000       0.07500000       0.12500000 </v>
   <v>      -0.08928571       0.07500000       0.12500000 </v>
   <v>      -0.05357143       0.07500000       0.12500000 </v>
   <v>      -0.01785714       0.07500000       0.12500000 </v>
   <v>       0.01785714       0.12500000       0.12500000 </v>
   <v>       0.05357143       0.12500000       0.12500000 </v>
   <v>       0.08928571       0.12500000       0.12500000 </v>
   <v>       0.12500000       0.12500000       0.12500000 </v>
   <v>       0.16071429       0.12500000       0.12500000 </v>
   <v>       0.19642857       0.12500000       0.12500000 </v>
   <v>       0.23214286       0.12500000       0.12500000 </v>
   <v>       0.26785714       0.12500000       0.12500000 </v>
   <v>       0.30357143       0.12500000       0.12500000 </v>
   <v>       0.33928571       0.12500000       0.12500000 </v>
   <v>       0.37500000       0.12500000       0.12500000 </v>
   <v>       0.41071429       0.12500000       0.12500000 </v>
   <v>       0.44642857       0.12500000       0.12500000 </v>
   <v>       0.48214286       0.12500000       0.12500000 </v>
   <v>      -0.48214286       0.12500000       0.12500000 </v>
   <v>      -0.44642857       0.12500000       0.12500000 </v>
   <v>      -0.41071429       0.12500000       0.12500000 </v>
   <v>      -0.37500000       0.12500000       0.12500000 </v>
   <v>      -0.33928571       0.12500000       0.12500000 </v>
   <v>      -0.30357143       0.12500000       0.12500000 </v>
   <v>      -0.26785714       0.12500000       0.12500000 </v>
   <v>      -0.23214286       0.12500000       0.12500000 </v>
   <v>      -0.19642857       0.12500000       0.12500000 </v>
   <v>      -0.16071429       0.12500000       0.12500000 </v>
   <v>      -0.12500000       0.12500000       0.12500000 </v>
   <v>      -0.08928571       0.12500000       0.12500000 </v>
   <v>      -0.05357143       0.12500000       0.12500000 </v>
   <v>      -0.01785714       0.12500000       0.12500000 </v>
   <v>       0.01785714       0.17500000       0.12500000 </v>
   <v>       0.05357143       0.17500000       0.12500000 </v>
   <v>       0.08928571       0.17500000       0.12500000 </v>
   <v>       0.12500000       0.17500000       0.12500000 </v>
   <v>       0.16071429       0.17500000       0.12500000 </v>
   <v>       0.19642857       0.17500000       0.12500000 </v>
   <v>       0.23214286       0.17500000       0.12500000 </v>
   <v>       0.26785714       0.17500000       0.12500000 </v>
   <v>       0.30357143       0.17500000       0.12500000 </v>
   <v>       0.33928571       0.17500000       0.12500000 </v>
   <v>       0.37500000       0.17500000       0.12500000 </v>
   <v>       0.41071429       0.17500000       0.12500000 </v>
   <v>       0.44642857       0.17500000       0.12500000 </v>
   <v>       0.48214286       0.17500000       0.12500000 </v>
   <v>      -0.48214286       0.17500000       0.12500000 </v>
   <v>      -0.44642857       0.17500000       0.12500000 </v>
   <v>      -0.41071429       0.17500000       0.12500000 </v>
   <v>      -0.37500000       0.17500000       0.12500000 </v>
   <v>      -0.33928571       0.17500000       0.12500000 </v>
   <v>      -0.30357143       0.17500000       0.12500000 </v>
   <v>      -0.26785714       0.17500000       0.12500000 </v>
   <v>      -0.23214286       0.17500000       0.12500000 </v>
   <v>      -0.19642857       0.17500000       0.12500000 </v>
   <v>      -0.16071429       0.17500000       0.12500000 </v>
   <v>      -0.12500000       0.17500000       0.12500000 </v>
   <v>      -0.08928571       0.17500000       0.12500000 </v>
   <v>      -0.05357143       0.17500000       0.12500000 </v>
   <v>      -0.01785714       0.17500000       0.12500000 </v>
   <v>       0.01785714       0.22500000       0.12500000 </v>
   <v>       0.05357143       0.22500000       0.12500000 </v>
   <v>       0.08928571       0.22500000       0.12500000 </v>
   <v>       0.12500000       0.22500000       0.12500000 </v>
   <v>       0.16071429       0.22500000       0.12500000 </v>
   <v>       0.19642857       0.22500000       0.12500000 </v>
   <v>       0.23214286       0.22500000       0.12500000 </v>
   <v>       0.26785714       0.22500000       0.12500000 </v>
   <v>       0.30357143       0.22500000       0.12500000 </v>
   <v>       0.33928571       0.22500000       0.12500000 </v>
   <v>       0.37500000       0.22500000       0.12500000 </v>
   <v>       0.41071429       0.22500000       0.12500000 </v>
   <v>       0.44642857       0.22500000       0.12500000 </v>
   <v>       0.48214286       0.22500000       0.12500000 </v>
   <v>      -0.48214286       0.22500000       0.12500000 </v>
   <v>      -0.44642857       0.22500000       0.12500000 </v>
   <v>      -0.41071429       0.22500000       0.12500000 </v>
   <v>      -0.37500000       0.22500000       0.12500000 </v>
   <v>      -0.33928571       0.22500000       0.12500000 </v>
   <v>      -0.30357143       0.22500000       0.12500000 </v>
   <v>      -0.26785714       0.22500000       0.12500000 </v>
   <v>      -0.23214286       0.22500000       0.12500000 </v>
   <v>      -0.19642857       0.22500000       0.12500000 </v>
   <v>      -0.16071429       0.22500000       0.12500000 </v>
   <v>      -0.12500000       0.22500000       0.12500000 </v>
   <v>      -0.08928571       0.22500000       0.12500000 </v>
   <v>      -0.05357143       0.22500000       0.12500000 </v>
   <v>      -0.01785714       0.22500000       0.12500000 </v>
   <v>       0.01785714       0.27500000       0.12500000 </v>
   <v>       0.05357143       0.27500000       0.12500000 </v>
   <v>       0.08928571       0.27500000       0.12500000 </v>
   <v>       0.12500000       0.27500000       0.12500000 </v>
   <v>       0.16071429       0.27500000       0.12500000 </v>
   <v>       0.19642857       0.27500000       0.12500000 </v>
   <v>       0.23214286       0.27500000       0.12500000 </v>
   <v>       0.26785714       0.27500000       0.12500000 </v>
   <v>       0.30357143       0.27500000       0.12500000 </v>
   <v>       0.33928571       0.27500000       0.12500000 </v>
   <v>       0.37500000       0.27500000       0.12500000 </v>
   <v>       0.41071429       0.27500000       0.12500000 </v>
   <v>       0.44642857       0.27500000       0.12500000 </v>
   <v>       0.48214286       0.27500000       0.12500000 </v>
   <v>      -0.48214286       0.27500000       0.12500000 </v>
   <v>      -0.44642857       0.27500000       0.12500000 </v>
   <v>      -0.41071429       0.27500000       0.12500000 </v>
   <v>      -0.37500000       0.27500000       0.12500000 </v>
   <v>      -0.33928571       0.27500000       0.12500000 </v>
   <v>      -0.30357143       0.27500000       0.12500000 </v>
   <v>      -0.26785714       0.27500000       0.12500000 </v>
   <v>      -0.23214286       0.27500000       0.12500000 </v>
   <v>      -0.19642857       0.27500000       0.12500000 </v>
   <v>      -0.16071429       0.27500000       0.12500000 </v>
   <v>      -0.12500000       0.27500000       0.12500000 </v>
   <v>      -0.08928571       0.27500000       0.12500000 </v>
   <v>      -0.05357143       0.27500000       0.12500000 </v>
   <v>      -0.01785714       0.27500000       0.12500000 </v>
   <v>       0.01785714       0.32500000       0.12500000 </v>
   <v>       0.05357143       0.32500000       0.12500000 </v>
   <v>       0.08928571       0.32500000       0.12500000 </v>
   <v>       0.12500000       0.32500000       0.12500000 </v>
   <v>       0.16071429       0.32500000       0.12500000 </v>
   <v>       0.19642857       0.32500000       0.12500000 </v>
   <v>       0.23214286       0.32500000       0.12500000 </v>
   <v>       0.26785714       0.32500000       0.12500000 </v>
   <v>       0.30357143       0.32500000       0.12500000 </v>
   <v>       0.33928571       0.32500000       0.12500000 </v>
   <v>       0.37500000       0.32500000       0.12500000 </v>
   <v>       0.41071429       0.32500000       0.12500000 </v>
   <v>       0.44642857       0.32500000       0.12500000 </v>
   <v>       0.48214286       0.32500000       0.12500000 </v>
   <v>      -0.48214286       0.32500000       0.12500000 </v>
   <v>      -0.44642857       0.32500000       0.12500000 </v>
   <v>      -0.41071429       0.32500000       0.12500000 </v>
   <v>      -0.37500000       0.32500000       0.12500000 </v>
   <v>      -0.33928571       0.32500000       0.12500000 </v>
   <v>      -0.30357143       0.32500000       0.12500000 </v>
   <v>      -0.26785714       0.32500000       0.12500000 </v>
   <v>      -0.23214286       0.32500000       0.12500000 </v>
   <v>      -0.19642857       0.32500000       0.12500000 </v>
   <v>      -0.16071429       0.32500000       0.12500000 </v>
   <v>      -0.12500000       0.32500000       0.12500000 </v>
   <v>      -0.08928571       0.32500000       0.12500000 </v>
   <v>      -0.05357143       0.32500000       0.12500000 </v>
   <v>      -0.01785714       0.32500000       0.12500000 </v>
   <v>       0.01785714       0.37500000       0.12500000 </v>
   <v>       0.05357143       0.37500000       0.12500000 </v>
   <v>       0.08928571       0.37500000       0.12500000 </v>
   <v>       0.12500000       0.37500000       0.12500000 </v>
   <v>       0.16071429       0.37500000       0.12500000 </v>
   <v>       0.19642857       0.37500000       0.12500000 </v>
   <v>       0.23214286       0.37500000       0.12500000 </v>
   <v>       0.26785714       0.37500000       0.12500000 </v>
   <v>       0.30357143       0.37500000       0.12500000 </v>
   <v>       0.33928571       0.37500000       0.12500000 </v>
   <v>       0.37500000       0.37500000       0.12500000 </v>
   <v>       0.41071429       0.37500000       0.12500000 </v>
   <v>       0.44642857       0.37500000       0.12500000 </v>
   <v>       0.48214286       0.37500000       0.12500000 </v>
   <v>      -0.48214286       0.37500000       0.12500000 </v>
   <v>      -0.44642857       0.37500000       0.12500000 </v>
   <v>      -0.41071429       0.37500000       0.12500000 </v>
   <v>      -0.37500000       0.37500000       0.12500000 </v>
   <v>      -0.33928571       0.37500000       0.12500000 </v>
   <v>      -0.30357143       0.37500000       0.12500000 </v>
   <v>      -0.26785714       0.37500000       0.12500000 </v>
   <v>      -0.23214286       0.37500000       0.12500000 </v>
   <v>      -0.19642857       0.37500000       0.12500000 </v>
   <v>      -0.16071429       0.37500000       0.12500000 </v>
   <v>      -0.12500000       0.37500000       0.12500000 </v>
   <v>      -0.08928571       0.37500000       0.12500000 </v>
   <v>      -0.05357143       0.37500000       0.12500000 </v>
   <v>      -0.01785714       0.37500000       0.12500000 </v>
   <v>       0.01785714       0.42500000       0.12500000 </v>
   <v>       0.05357143       0.42500000       0.12500000 </v>
   <v>       0.08928571       0.42500000       0.12500000 </v>
   <v>       0.12500000       0.42500000       0.12500000 </v>
   <v>       0.16071429       0.42500000       0.12500000 </v>
   <v>       0.19642857       0.42500000       0.12500000 </v>
   <v>       0.23214286       0.42500000       0.12500000 </v>
   <v>       0.26785714       0.42500000       0.12500000 </v>
   <v>       0.30357143       0.42500000       0.12500000 </v>
   <v>       0.33928571       0.42500000       0.12500000 </v>
   <v>       0.37500000       0.42500000       0.12500000 </v>
   <v>       0.41071429       0.42500000       0.12500000 </v>
   <v>       0.44642857       0.42500000       0.12500000 </v>
   <v>       0.48214286       0.42500000       0.12500000 </v>
   <v>      -0.48214286       0.42500000       0.12500000 </v>
   <v>      -0.44642857       0.42500000       0.12500000 </v>
   <v>      -0.41071429       0.42500000       0.12500000 </v>
   <v>      -0.37500000       0.42500000       0.12500000 </v>
   <v>      -0.33928571       0.42500000       0.12500000 </v>
   <v>      -0.30357143       0.42500000       0.12500000 </v>
   <v>      -0.26785714       0.42500000       0.12500000 </v>
   <v>      -0.23214286       0.42500000       0.12500000 </v>
   <v>      -0.19642857       0.42500000       0.12500000 </v>
   <v>      -0.16071429       0.42500000       0.12500000 </v>
   <v>      -0.12500000       0.42500000       0.12500000 </v>
   <v>      -0.08928571       0.42500000       0.12500000 </v>
   <v>      -0.05357143       0.42500000       0.12500000 </v>
   <v>      -0.01785714       0.42500000       0.12500000 </v>
   <v>       0.01785714       0.47500000       0.12500000 </v>
   <v>       0.05357143       0.47500000       0.12500000 </v>
   <v>       0.08928571       0.47500000       0.12500000 </v>
   <v>       0.12500000       0.47500000       0.12500000 </v>
   <v>       0.16071429       0.47500000       0.12500000 </v>
   <v>       0.19642857       0.47500000       0.12500000 </v>
   <v>       0.23214286       0.47500000       0.12500000 </v>
   <v>       0.26785714       0.47500000       0.12500000 </v>
   <v>       0.30357143       0.47500000       0.12500000 </v>
   <v>       0.33928571       0.47500000       0.12500000 </v>
   <v>       0.37500000       0.47500000       0.12500000 </v>
   <v>       0.41071429       0.47500000       0.12500000 </v>
   <v>       0.44642857       0.47500000       0.12500000 </v>
   <v>       0.48214286       0.47500000       0.12500000 </v>
   <v>      -0.48214286       0.47500000       0.12500000 </v>
   <v>      -0.44642857       0.47500000       0.12500000 </v>
   <v>      -0.41071429       0.47500000       0.12500000 </v>
   <v>      -0.37500000       0.47500000       0.12500000 </v>
   <v>      -0.33928571       0.47500000       0.12500000 </v>
   <v>      -0.30357143       0.47500000       0.12500000 </v>
   <v>      -0.26785714       0.47500000       0.12500000 </v>
   <v>      -0.23214286       0.47500000       0.12500000 </v>
   <v>      -0.19642857       0.47500000       0.12500000 </v>
   <v>      -0.16071429       0.47500000       0.12500000 </v>
   <v>      -0.12500000       0.47500000       0.12500000 </v>
   <v>      -0.08928571       0.47500000       0.12500000 </v>
   <v>      -0.05357143       0.47500000       0.12500000 </v>
   <v>      -0.01785714       0.47500000       0.12500000 </v>
   <v>       0.01785714       0.02500000       0.37500000 </v>
   <v>       0.05357143       0.02500000       0.37500000 </v>
   <v>       0.08928571       0.02500000       0.37500000 </v>
   <v>       0.12500000       0.02500000       0.37500000 </v>
   <v>       0.16071429       0.02500000       0.37500000 </v>
   <v>       0.19642857       0.02500000       0.37500000 </v>
   <v>       0.23214286       0.02500000       0.37500000 </v>
   <v>       0.26785714       0.02500000       0.37500000 </v>
   <v>       0.30357143       0.02500000       0.37500000 </v>
   <v>       0.33928571       0.02500000       0.37500000 </v>
   <v>       0.37500000       0.02500000       0.37500000 </v>
   <v>       0.41071429       0.02500000       0.37500000 </v>
   <v>       0.44642857       0.02500000       0.37500000 </v>
   <v>       0.48214286       0.02500000       0.37500000 </v>
   <v>      -0.48214286       0.02500000       0.37500000 </v>
   <v>      -0.44642857       0.02500000       0.37500000 </v>
   <v>      -0.41071429       0.02500000       0.37500000 </v>
   <v>      -0.37500000       0.02500000       0.37500000 </v>
   <v>      -0.33928571       0.02500000       0.37500000 </v>
   <v>      -0.30357143       0.02500000       0.37500000 </v>
   <v>      -0.26785714       0.02500000       0.37500000 </v>
   <v>      -0.23214286       0.02500000       0.37500000 </v>
   <v>      -0.19642857       0.02500000       0.37500000 </v>
   <v>      -0.16071429       0.02500000       0.37500000 </v>
   <v>      -0.12500000       0.02500000       0.37500000 </v>
   <v>      -0.08928571       0.02500000       0.37500000 </v>
   <v>      -0.05357143       0.02500000       0.37500000 </v>
   <v>      -0.01785714       0.02500000       0.37500000 </v>
   <v>       0.01785714       0.07500000       0.37500000 </v>
   <v>       0.05357143       0.07500000       0.37500000 </v>
   <v>       0.08928571       0.07500000       0.37500000 </v>
   <v>       0.12500000       0.07500000       0.37500000 </v>
   <v>       0.16071429       0.07500000       0.37500000 </v>
   <v>       0.19642857       0.07500000       0.37500000 </v>
   <v>       0.23214286       0.07500000       0.37500000 </v>
   <v>       0.26785714       0.07500000       0.37500000 </v>
   <v>       0.30357143       0.07500000       0.37500000 </v>
   <v>       0.33928571       0.07500000       0.37500000 </v>
   <v>       0.37500000       0.07500000       0.37500000 </v>
   <v>       0.41071429       0.07500000       0.37500000 </v>
   <v>       0.44642857       0.07500000       0.37500000 </v>
   <v>       0.48214286       0.07500000       0.37500000 </v>
   <v>      -0.48214286       0.07500000       0.37500000 </v>
   <v>      -0.44642857       0.07500000       0.37500000 </v>
   <v>      -0.41071429       0.07500000       0.37500000 </v>
   <v>      -0.37500000       0.07500000       0.37500000 </v>
   <v>      -0.33928571       0.07500000       0.37500000 </v>
   <v>      -0.30357143       0.07500000       0.37500000 </v>
   <v>      -0.26785714       0.07500000       0.37500000 </v>
   <v>      -0.23214286       0.07500000       0.37500000 </v>
   <v>      -0.19642857       0.07500000       0.37500000 </v>
   <v>      -0.16071429       0.07500000       0.37500000 </v>
   <v>      -0.12500000       0.07500000       0.37500000 </v>
   <v>      -0.08928571       0.07500000       0.37500000 </v>
   <v>      -0.05357143       0.07500000       0.37500000 </v>
   <v>      -0.01785714       0.07500000       0.37500000 </v>
   <v>       0.01785714       0.12500000       0.37500000 </v>
   <v>       0.05357143       0.12500000       0.37500000 </v>
   <v>       0.08928571       0.12500000       0.37500000 </v>
   <v>       0.12500000       0.12500000       0.37500000 </v>
   <v>       0.16071429       0.12500000       0.37500000 </v>
   <v>       0.19642857       0.12500000       0.37500000 </v>
   <v>       0.23214286       0.12500000       0.37500000 </v>
   <v>       0.26785714       0.12500000       0.37500000 </v>
   <v>       0.30357143       0.12500000       0.37500000 </v>
   <v>       0.33928571       0.12500000       0.37500000 </v>
   <v>       0.37500000       0.12500000       0.37500000 </v>
   <v>       0.41071429       0.12500000       0.37500000 </v>
   <v>       0.44642857       0.12500000       0.37500000 </v>
   <v>       0.48214286       0.12500000       0.37500000 </v>
   <v>      -0.48214286       0.12500000       0.37500000 </v>
   <v>      -0.44642857       0.12500000       0.37500000 </v>
   <v>      -0.41071429       0.12500000       0.37500000 </v>
   <v>      -0.37500000       0.12500000       0.37500000 </v>
   <v>      -0.33928571       0.12500000       0.37500000 </v>
   <v>      -0.30357143       0.12500000       0.37500000 </v>
   <v>      -0.26785714       0.12500000       0.37500000 </v>
   <v>      -0.23214286       0.12500000       0.37500000 </v>
   <v>      -0.19642857       0.12500000       0.37500000 </v>
   <v>      -0.16071429       0.12500000       0.37500000 </v>
   <v>      -0.12500000       0.12500000       0.37500000 </v>
   <v>      -0.08928571       0.12500000       0.37500000 </v>
   <v>      -0.05357143       0.12500000       0.37500000 </v>
   <v>      -0.01785714       0.12500000       0.37500000 </v>
   <v>       0.01785714       0.17500000       0.37500000 </v>
   <v>       0.05357143       0.17500000       0.37500000 </v>
   <v>       0.08928571       0.17500000       0.37500000 </v>
   <v>       0.12500000       0.17500000       0.37500000 </v>
   <v>       0.16071429       0.17500000       0.37500000 </v>
   <v>       0.19642857       0.17500000       0.37500000 </v>
   <v>       0.23214286       0.17500000       0.37500000 </v>
   <v>       0.26785714       0.17500000       0.37500000 </v>
   <v>       0.30357143       0.17500000       0.37500000 </v>
   <v>       0.33928571       0.17500000       0.37500000 </v>
   <v>       0.37500000       0.17500000       0.37500000 </v>
   <v>       0.41071429       0.17500000       0.37500000 </v>
   <v>       0.44642857       0.17500000       0.37500000 </v>
   <v>       0.48214286       0.17500000       0.37500000 </v>
   <v>      -0.48214286       0.17500000       0.37500000 </v>
   <v>      -0.44642857       0.17500000       0.37500000 </v>
   <v>      -0.41071429       0.17500000       0.37500000 </v>
   <v>      -0.37500000       0.17500000       0.37500000 </v>
   <v>      -0.33928571       0.17500000       0.37500000 </v>
   <v>      -0.30357143       0.17500000       0.37500000 </v>
   <v>      -0.26785714       0.17500000       0.37500000 </v>
   <v>      -0.23214286       0.17500000       0.37500000 </v>
   <v>      -0.19642857       0.17500000       0.37500000 </v>
   <v>      -0.16071429       0.17500000       0.37500000 </v>
   <v>      -0.12500000       0.17500000       0.37500000 </v>
   <v>      -0.08928571       0.17500000       0.37500000 </v>
   <v>      -0.05357143       0.17500000       0.37500000 </v>
   <v>      -0.01785714       0.17500000       0.37500000 </v>
   <v>       0.01785714       0.22500000       0.37500000 </v>
   <v>       0.05357143       0.22500000       0.37500000 </v>
   <v>       0.08928571       0.22500000       0.37500000 </v>
   <v>       0.12500000       0.22500000       0.37500000 </v>
   <v>       0.16071429       0.22500000       0.37500000 </v>
   <v>       0.19642857       0.22500000       0.37500000 </v>
   <v>       0.23214286       0.22500000       0.37500000 </v>
   <v>       0.26785714       0.22500000       0.37500000 </v>
   <v>       0.30357143       0.22500000       0.37500000 </v>
   <v>       0.33928571       0.22500000       0.37500000 </v>
   <v>       0.37500000       0.22500000       0.37500000 </v>
   <v>       0.41071429       0.22500000       0.37500000 </v>
   <v>       0.44642857       0.22500000       0.37500000 </v>
   <v>       0.48214286       0.22500000       0.37500000 </v>
   <v>      -0.48214286       0.22500000       0.37500000 </v>
   <v>      -0.44642857       0.22500000       0.37500000 </v>
   <v>      -0.41071429       0.22500000       0.37500000 </v>
   <v>      -0.37500000       0.22500000       0.37500000 </v>
   <v>      -0.33928571       0.22500000       0.37500000 </v>
   <v>      -0.30357143       0.22500000       0.37500000 </v>
   <v>      -0.26785714       0.22500000       0.37500000 </v>
   <v>      -0.23214286       0.22500000       0.37500000 </v>
   <v>      -0.19642857       0.22500000       0.37500000 </v>
   <v>      -0.16071429       0.22500000       0.37500000 </v>
   <v>      -0.12500000       0.22500000       0.37500000 </v>
   <v>      -0.08928571       0.22500000       0.37500000 </v>
   <v>      -0.05357143       0.22500000       0.37500000 </v>
   <v>      -0.01785714       0.22500000       0.37500000 </v>
   <v>       0.01785714       0.27500000       0.37500000 </v>
   <v>       0.05357143       0.27500000       0.37500000 </v>
   <v>       0.08928571       0.27500000       0.37500000 </v>
   <v>       0.12500000       0.27500000       0.37500000 </v>
   <v>       0.16071429       0.27500000       0.37500000 </v>
   <v>       0.19642857       0.27500000       0.37500000 </v>
   <v>       0.23214286       0.27500000       0.37500000 </v>
   <v>       0.26785714       0.27500000       0.37500000 </v>
   <v>       0.30357143       0.27500000       0.37500000 </v>
   <v>       0.33928571       0.27500000       0.37500000 </v>
   <v>       0.37500000       0.27500000       0.37500000 </v>
   <v>       0.41071429       0.27500000       0.37500000 </v>
   <v>       0.44642857       0.27500000       0.37500000 </v>
   <v>       0.48214286       0.27500000       0.37500000 </v>
   <v>      -0.48214286       0.27500000       0.37500000 </v>
   <v>      -0.44642857       0.27500000       0.37500000 </v>
   <v>      -0.41071429       0.27500000       0.37500000 </v>
   <v>      -0.37500000       0.27500000       0.37500000 </v>
   <v>      -0.33928571       0.27500000       0.37500000 </v>
   <v>      -0.30357143       0.27500000       0.37500000 </v>
   <v>      -0.26785714       0.27500000       0.37500000 </v>
   <v>      -0.23214286       0.27500000       0.37500000 </v>
   <v>      -0.19642857       0.27500000       0.37500000 </v>
   <v>      -0.16071429       0.27500000       0.37500000 </v>
   <v>      -0.12500000       0.27500000       0.37500000 </v>
   <v>      -0.08928571       0.27500000       0.37500000 </v>
   <v>      -0.05357143       0.27500000       0.37500000 </v>
   <v>      -0.01785714       0.27500000       0.37500000 </v>
   <v>       0.01785714       0.32500000       0.37500000 </v>
   <v>       0.05357143       0.32500000       0.37500000 </v>
   <v>       0.08928571       0.32500000       0.37500000 </v>
   <v>       0.12500000       0.32500000       0.37500000 </v>
   <v>       0.16071429       0.32500000       0.37500000 </v>
   <v>       0.19642857       0.32500000       0.37500000 </v>
   <v>       0.23214286       0.32500000       0.37500000 </v>
   <v>       0.26785714       0.32500000       0.37500000 </v>
   <v>       0.30357143       0.32500000       0.37500000 </v>
   <v>       0.33928571       0.32500000       0.37500000 </v>
   <v>       0.37500000       0.32500000       0.37500000 </v>
   <v>       0.41071429       0.32500000       0.37500000 </v>
   <v>       0.44642857       0.32500000       0.37500000 </v>
   <v>       0.48214286       0.32500000       0.37500000 </v>
   <v>      -0.48214286       0.32500000       0.37500000 </v>
   <v>      -0.44642857       0.32500000       0.37500000 </v>
   <v>      -0.41071429       0.32500000       0.37500000 </v>
   <v>      -0.37500000       0.32500000       0.37500000 </v>
   <v>      -0.33928571       0.32500000       0.37500000 </v>
   <v>      -0.30357143       0.32500000       0.37500000 </v>
   <v>      -0.26785714       0.32500000       0.37500000 </v>
   <v>      -0.23214286       0.32500000       0.37500000 </v>
   <v>      -0.19642857       0.32500000       0.37500000 </v>
   <v>      -0.16071429       0.32500000       0.37500000 </v>
   <v>      -0.12500000       0.32500000       0.37500000 </v>
   <v>      -0.08928571       0.32500000       0.37500000 </v>
   <v>      -0.05357143       0.32500000       0.37500000 </v>
   <v>      -0.01785714       0.32500000       0.37500000 </v>
   <v>       0.01785714       0.37500000       0.37500000 </v>
   <v>       0.05357143       0.37500000       0.37500000 </v>
   <v>       0.08928571       0.37500000       0.37500000 </v>
   <v>       0.12500000       0.37500000       0.37500000 </v>
   <v>       0.16071429       0.37500000       0.37500000 </v>
   <v>       0.19642857       0.37500000       0.37500000 </v>
   <v>       0.23214286       0.37500000       0.37500000 </v>
   <v>       0.26785714       0.37500000       0.37500000 </v>
   <v>       0.30357143       0.37500000       0.37500000 </v>
   <v>       0.33928571       0.37500000       0.37500000 </v>
   <v>       0.37500000       0.37500000       0.37500000 </v>
   <v>       0.41071429       0.37500000       0.37500000 </v>
   <v>       0.44642857       0.37500000       0.37500000 </v>
   <v>       0.48214286       0.37500000       0.37500000 </v>
   <v>      -0.48214286       0.37500000       0.37500000 </v>
   <v>      -0.44642857       0.37500000       0.37500000 </v>
   <v>      -0.41071429       0.37500000       0.37500000 </v>
   <v>      -0.37500000       0.37500000       0.37500000 </v>
   <v>      -0.33928571       0.37500000       0.37500000 </v>
   <v>      -0.30357143       0.37500000       0.37500000 </v>
   <v>      -0.26785714       0.37500000       0.37500000 </v>
   <v>      -0.23214286       0.37500000       0.37500000 </v>
   <v>      -0.19642857       0.37500000       0.37500000 </v>
   <v>      -0.16071429       0.37500000       0.37500000 </v>
   <v>      -0.12500000       0.37500000       0.37500000 </v>
   <v>      -0.08928571       0.37500000       0.37500000 </v>
   <v>      -0.05357143       0.37500000       0.37500000 </v>
   <v>      -0.01785714       0.37500000       0.37500000 </v>
   <v>       0.01785714       0.42500000       0.37500000 </v>
   <v>       0.05357143       0.42500000       0.37500000 </v>
   <v>       0.08928571       0.42500000       0.37500000 </v>
   <v>       0.12500000       0.42500000       0.37500000 </v>
   <v>       0.16071429       0.42500000       0.37500000 </v>
   <v>       0.19642857       0.42500000       0.37500000 </v>
   <v>       0.23214286       0.42500000       0.37500000 </v>
   <v>       0.26785714       0.42500000       0.37500000 </v>
   <v>       0.30357143       0.42500000       0.37500000 </v>
   <v>       0.33928571       0.42500000       0.37500000 </v>
   <v>       0.37500000       0.42500000       0.37500000 </v>
   <v>       0.41071429       0.42500000       0.37500000 </v>
   <v>       0.44642857       0.42500000       0.37500000 </v>
   <v>       0.48214286       0.42500000       0.37500000 </v>
   <v>      -0.48214286       0.42500000       0.37500000 </v>
   <v>      -0.44642857       0.42500000       0.37500000 </v>
   <v>      -0.41071429       0.42500000       0.37500000 </v>
   <v>      -0.37500000       0.42500000       0.37500000 </v>
   <v>      -0.33928571       0.42500000       0.37500000 </v>
   <v>      -0.30357143       0.42500000       0.37500000 </v>
   <v>      -0.26785714       0.42500000       0.37500000 </v>
   <v>      -0.23214286       0.42500000       0.37500000 </v>
   <v>      -0.19642857       0.42500000       0.37500000 </v>
   <v>      -0.16071429       0.42500000       0.37500000 </v>
   <v>      -0.12500000       0.42500000       0.37500000 </v>
   <v>      -0.08928571       0.42500000       0.37500000 </v>
   <v>      -0.05357143       0.42500000       0.37500000 </v>
   <v>      -0.01785714       0.42500000       0.37500000 </v>
   <v>       0.01785714       0.47500000       0.37500000 </v>
   <v>       0.05357143       0.47500000       0.37500000 </v>
   <v>       0.08928571       0.47500000       0.37500000 </v>
   <v>       0.12500000       0.47500000       0.37500000 </v>
   <v>       0.16071429       0.47500000       0.37500000 </v>
   <v>       0.19642857       0.47500000       0.37500000 </v>
   <v>       0.23214286       0.47500000       0.37500000 </v>
   <v>       0.26785714       0.47500000       0.37500000 </v>
   <v>       0.30357143       0.47500000       0.37500000 </v>
   <v>       0.33928571       0.47500000       0.37500000 </v>
   <v>       0.37500000       0.47500000       0.37500000 </v>
   <v>       0.41071429       0.47500000       0.37500000 </v>
   <v>       0.44642857       0.47500000       0.37500000 </v>
   <v>       0.48214286       0.47500000       0.37500000 </v>
   <v>      -0.48214286       0.47500000       0.37500000 </v>
   <v>      -0.44642857       0.47500000       0.37500000 </v>
   <v>      -0.41071429       0.47500000       0.37500000 </v>
   <v>      -0.37500000       0.47500000       0.37500000 </v>
   <v>      -0.33928571       0.47500000       0.37500000 </v>
   <v>      -0.30357143       0.47500000       0.37500000 </v>
   <v>      -0.26785714       0.47500000       0.37500000 </v>
   <v>      -0.23214286       0.47500000       0.37500000 </v>
   <v>      -0.19642857       0.47500000       0.37500000 </v>
   <v>      -0.16071429       0.47500000       0.37500000 </v>
   <v>      -0.12500000       0.47500000       0.37500000 </v>
   <v>      -0.08928571       0.47500000       0.37500000 </v>
   <v>      -0.05357143       0.47500000       0.37500000 </v>
   <v>      -0.01785714       0.47500000       0.37500000 </v>
  </varray>
  <varray name="weights" >
   <v>       0.00178571 </v>
   <v>       0.00178571 </v>
   <v>       0.00178571 </v>
   <v>       0.00178571 </v>
   <v>       0.00178571 </v>
   <v>       0.00178571 </v>
   <v>       0.00178571 </v>
   <v>       0.00178571 </v>
   <v>       0.00178571 </v>
   <v>       0.00178571 </v>
   <v>       0.00178571 </v>
   <v>       0.00178571 </v>
   <v>       0.00178571 </v>
   <v>       0.00178571 </v>
   <v>       0.00178571 </v>
   <v>       0.00178571 </v>
   <v>       0.00178571 </v>
   <v>       0.00178571 </v>
   <v>       0.00178571 </v>
   <v>       0.00178571 </v>
   <v>       0.00178571 </v>
   <v>       0.00178571 </v>
   <v>       0.00178571 </v>
   <v>       0.00178571 </v>
   <v>       0.00178571 </v>
   <v>       0.00178571 </v>
   <v>       0.00178571 </v>
   <v>       0.00178571 </v>
   <v>       0.00178571 </v>
   <v>       0.00178571 </v>
   <v>       0.00178571 </v>
   <v>       0.00178571 </v>
   <v>       0.00178571 </v>
   <v>       0.00178571 </v>
   <v>       0.00178571 </v>
   <v>       0.00178571 </v>
   <v>       0.00178571 </v>
   <v>       0.00178571 </v>
   <v>       0.00178571 </v>
   <v>       0.00178571 </v>
   <v>       0.00178571 </v>
   <v>       0.00178571 </v>
   <v>       0.00178571 </v>
   <v>       0.00178571 </v>
   <v>       0.00178571 </v>
   <v>       0.00178571 </v>
   <v>       0.00178571 </v>
   <v>       0.00178571 </v>
   <v>       0.00178571 </v>
   <v>       0.00178571 </v>
   <v>       0.00178571 </v>
   <v>       0.00178571 </v>
   <v>       0.00178571 </v>
   <v>       0.00178571 </v>
   <v>       0.00178571 </v>
   <v>       0.00178571 </v>
   <v>       0.00178571 </v>
   <v>       0.00178571 </v>
   <v>       0.00178571 </v>
   <v>       0.00178571 </v>
   <v>       0.00178571 </v>
   <v>       0.00178571 </v>
   <v>       0.00178571 </v>
   <v>       0.00178571 </v>
   <v>       0.00178571 </v>
   <v>       0.00178571 </v>
   <v>       0.00178571 </v>
   <v>       0.00178571 </v>
   <v>       0.00178571 </v>
   <v>       0.00178571 </v>
   <v>       0.00178571 </v>
   <v>       0.00178571 </v>
   <v>       0.00178571 </v>
   <v>       0.00178571 </v>
   <v>       0.00178571 </v>
   <v>       0.00178571 </v>
   <v>       0.00178571 </v>
   <v>       0.00178571 </v>
   <v>       0.00178571 </v>
   <v>       0.00178571 </v>
   <v>       0.00178571 </v>
   <v>       0.00178571 </v>
   <v>       0.00178571 </v>
   <v>       0.00178571 </v>
   <v>       0.00178571 </v>
   <v>       0.00178571 </v>
   <v>       0.00178571 </v>
   <v>       0.00178571 </v>
   <v>       0.00178571 </v>
   <v>       0.00178571 </v>
   <v>       0.00178571 </v>
   <v>       0.00178571 </v>
   <v>       0.00178571 </v>
   <v>       0.00178571 </v>
   <v>       0.00178571 </v>
   <v>       0.00178571 </v>
   <v>       0.00178571 </v>
   <v>       0.00178571 </v>
   <v>       0.00178571 </v>
   <v>       0.00178571 </v>
   <v>       0.00178571 </v>
   <v>       0.00178571 </v>
   <v>       0.00178571 </v>
   <v>       0.00178571 </v>
   <v>       0.00178571 </v>
   <v>       0.00178571 </v>
   <v>       0.00178571 </v>
   <v>       0.00178571 </v>
   <v>       0.00178571 </v>
   <v>       0.00178571 </v>
   <v>       0.00178571 </v>
   <v>       0.00178571 </v>
   <v>       0.00178571 </v>
   <v>       0.00178571 </v>
   <v>       0.00178571 </v>
   <v>       0.00178571 </v>
   <v>       0.00178571 </v>
   <v>       0.00178571 </v>
   <v>       0.00178571 </v>
   <v>       0.00178571 </v>
   <v>       0.00178571 </v>
   <v>       0.00178571 </v>
   <v>       0.00178571 </v>
   <v>       0.00178571 </v>
   <v>       0.00178571 </v>
   <v>       0.00178571 </v>
   <v>       0.00178571 </v>
   <v>       0.00178571 </v>
   <v>       0.00178571 </v>
   <v>       0.00178571 </v>
   <v>       0.00178571 </v>
   <v>       0.00178571 </v>
   <v>       0.00178571 </v>
   <v>       0.00178571 </v>
   <v>       0.00178571 </v>
   <v>       0.00178571 </v>
   <v>       0.00178571 </v>
   <v>       0.00178571 </v>
   <v>       0.00178571 </v>
   <v>       0.00178571 </v>
   <v>       0.00178571 </v>
   <v>       0.00178571 </v>
   <v>       0.00178571 </v>
   <v>       0.00178571 </v>
   <v>       0.00178571 </v>
   <v>       0.00178571 </v>
   <v>       0.00178571 </v>
   <v>       0.00178571 </v>
   <v>       0.00178571 </v>
   <v>       0.00178571 </v>
   <v>       0.00178571 </v>
   <v>       0.00178571 </v>
   <v>       0.00178571 </v>
   <v>       0.00178571 </v>
   <v>       0.00178571 </v>
   <v>       0.00178571 </v>
   <v>       0.00178571 </v>
   <v>       0.00178571 </v>
   <v>       0.00178571 </v>
   <v>       0.00178571 </v>
   <v>       0.00178571 </v>
   <v>       0.00178571 </v>
   <v>       0.00178571 </v>
   <v>       0.00178571 </v>
   <v>       0.00178571 </v>
   <v>       0.00178571 </v>
   <v>       0.00178571 </v>
   <v>       0.00178571 </v>
   <v>       0.00178571 </v>
   <v>       0.00178571 </v>
   <v>       0.00178571 </v>
   <v>       0.00178571 </v>
   <v>       0.00178571 </v>
   <v>       0.00178571 </v>
   <v>       0.00178571 </v>
   <v>       0.00178571 </v>
   <v>       0.00178571 </v>
   <v>       0.00178571 </v>
   <v>       0.00178571 </v>
   <v>       0.00178571 </v>
   <v>       0.00178571 </v>
   <v>       0.00178571 </v>
   <v>       0.00178571 </v>
   <v>       0.00178571 </v>
   <v>       0.00178571 </v>
   <v>       0.00178571 </v>
   <v>       0.00178571 </v>
   <v>       0.00178571 </v>
   <v>       0.00178571 </v>
   <v>       0.00178571 </v>
   <v>       0.00178571 </v>
   <v>       0.00178571 </v>
   <v>       0.00178571 </v>
   <v>       0.00178571 </v>
   <v>       0.00178571 </v>
   <v>       0.00178571 </v>
   <v>       0.00178571 </v>
   <v>       0.00178571 </v>
   <v>       0.00178571 </v>
   <v>       0.00178571 </v>
   <v>       0.00178571 </v>
   <v>       0.00178571 </v>
   <v>       0.00178571 </v>
   <v>       0.00178571 </v>
   <v>       0.00178571 </v>
   <v>       0.00178571 </v>
   <v>       0.00178571 </v>
   <v>       0.00178571 </v>
   <v>       0.00178571 </v>
   <v>       0.00178571 </v>
   <v>       0.00178571 </v>
   <v>       0.00178571 </v>
   <v>       0.00178571 </v>
   <v>       0.00178571 </v>
   <v>       0.00178571 </v>
   <v>       0.00178571 </v>
   <v>       0.00178571 </v>
   <v>       0.00178571 </v>
   <v>       0.00178571 </v>
   <v>       0.00178571 </v>
   <v>       0.00178571 </v>
   <v>       0.00178571 </v>
   <v>       0.00178571 </v>
   <v>       0.00178571 </v>
   <v>       0.00178571 </v>
   <v>       0.00178571 </v>
   <v>       0.00178571 </v>
   <v>       0.00178571 </v>
   <v>       0.00178571 </v>
   <v>       0.00178571 </v>
   <v>       0.00178571 </v>
   <v>       0.00178571 </v>
   <v>       0.00178571 </v>
   <v>       0.00178571 </v>
   <v>       0.00178571 </v>
   <v>       0.00178571 </v>
   <v>       0.00178571 </v>
   <v>       0.00178571 </v>
   <v>       0.00178571 </v>
   <v>       0.00178571 </v>
   <v>       0.00178571 </v>
   <v>       0.00178571 </v>
   <v>       0.00178571 </v>
   <v>       0.00178571 </v>
   <v>       0.00178571 </v>
   <v>       0.00178571 </v>
   <v>       0.00178571 </v>
   <v>       0.00178571 </v>
   <v>       0.00178571 </v>
   <v>       0.00178571 </v>
   <v>       0.00178571 </v>
   <v>       0.00178571 </v>
   <v>       0.00178571 </v>
   <v>       0.00178571 </v>
   <v>       0.00178571 </v>
   <v>       0.00178571 </v>
   <v>       0.00178571 </v>
   <v>       0.00178571 </v>
   <v>       0.00178571 </v>
   <v>       0.00178571 </v>
   <v>       0.00178571 </v>
   <v>       0.00178571 </v>
   <v>       0.00178571 </v>
   <v>       0.00178571 </v>
   <v>       0.00178571 </v>
   <v>       0.00178571 </v>
   <v>       0.00178571 </v>
   <v>       0.00178571 </v>
   <v>       0.00178571 </v>
   <v>       0.00178571 </v>
   <v>       0.00178571 </v>
   <v>       0.00178571 </v>
   <v>       0.00178571 </v>
   <v>       0.00178571 </v>
   <v>       0.00178571 </v>
   <v>       0.00178571 </v>
   <v>       0.00178571 </v>
   <v>       0.00178571 </v>
   <v>       0.00178571 </v>
   <v>       0.00178571 </v>
   <v>       0.00178571 </v>
   <v>       0.00178571 </v>
   <v>       0.00178571 </v>
   <v>       0.00178571 </v>
   <v>       0.00178571 </v>
   <v>       0.00178571 </v>
   <v>       0.00178571 </v>
   <v>       0.00178571 </v>
   <v>       0.00178571 </v>
   <v>       0.00178571 </v>
   <v>       0.00178571 </v>
   <v>       0.00178571 </v>
   <v>       0.00178571 </v>
   <v>       0.00178571 </v>
   <v>       0.00178571 </v>
   <v>       0.00178571 </v>
   <v>       0.00178571 </v>
   <v>       0.00178571 </v>
   <v>       0.00178571 </v>
   <v>       0.00178571 </v>
   <v>       0.00178571 </v>
   <v>       0.00178571 </v>
   <v>       0.00178571 </v>
   <v>       0.00178571 </v>
   <v>       0.00178571 </v>
   <v>       0.00178571 </v>
   <v>       0.00178571 </v>
   <v>       0.00178571 </v>
   <v>       0.00178571 </v>
   <v>       0.00178571 </v>
   <v>       0.00178571 </v>
   <v>       0.00178571 </v>
   <v>       0.00178571 </v>
   <v>       0.00178571 </v>
   <v>       0.00178571 </v>
   <v>       0.00178571 </v>
   <v>       0.00178571 </v>
   <v>       0.00178571 </v>
   <v>       0.00178571 </v>
   <v>       0.00178571 </v>
   <v>       0.00178571 </v>
   <v>       0.00178571 </v>
   <v>       0.00178571 </v>
   <v>       0.00178571 </v>
   <v>       0.00178571 </v>
   <v>       0.00178571 </v>
   <v>       0.00178571 </v>
   <v>       0.00178571 </v>
   <v>       0.00178571 </v>
   <v>       0.00178571 </v>
   <v>       0.00178571 </v>
   <v>       0.00178571 </v>
   <v>       0.00178571 </v>
   <v>       0.00178571 </v>
   <v>       0.00178571 </v>
   <v>       0.00178571 </v>
   <v>       0.00178571 </v>
   <v>       0.00178571 </v>
   <v>       0.00178571 </v>
   <v>       0.00178571 </v>
   <v>       0.00178571 </v>
   <v>       0.00178571 </v>
   <v>       0.00178571 </v>
   <v>       0.00178571 </v>
   <v>       0.00178571 </v>
   <v>       0.00178571 </v>
   <v>       0.00178571 </v>
   <v>       0.00178571 </v>
   <v>       0.00178571 </v>
   <v>       0.00178571 </v>
   <v>       0.00178571 </v>
   <v>       0.00178571 </v>
   <v>       0.00178571 </v>
   <v>       0.00178571 </v>
   <v>       0.00178571 </v>
   <v>       0.00178571 </v>
   <v>       0.00178571 </v>
   <v>       0.00178571 </v>
   <v>       0.00178571 </v>
   <v>       0.00178571 </v>
   <v>       0.00178571 </v>
   <v>       0.00178571 </v>
   <v>       0.00178571 </v>
   <v>       0.00178571 </v>
   <v>       0.00178571 </v>
   <v>       0.00178571 </v>
   <v>       0.00178571 </v>
   <v>       0.00178571 </v>
   <v>       0.00178571 </v>
   <v>       0.00178571 </v>
   <v>       0.00178571 </v>
   <v>       0.00178571 </v>
   <v>       0.00178571 </v>
   <v>       0.00178571 </v>
   <v>       0.00178571 </v>
   <v>       0.00178571 </v>
   <v>       0.00178571 </v>
   <v>       0.00178571 </v>
   <v>       0.00178571 </v>
   <v>       0.00178571 </v>
   <v>       0.00178571 </v>
   <v>       0.00178571 </v>
   <v>       0.00178571 </v>
   <v>       0.00178571 </v>
   <v>       0.00178571 </v>
   <v>       0.00178571 </v>
   <v>       0.00178571 </v>
   <v>       0.00178571 </v>
   <v>       0.00178571 </v>
   <v>       0.00178571 </v>
   <v>       0.00178571 </v>
   <v>       0.00178571 </v>
   <v>       0.00178571 </v>
   <v>       0.00178571 </v>
   <v>       0.00178571 </v>
   <v>       0.00178571 </v>
   <v>       0.00178571 </v>
   <v>       0.00178571 </v>
   <v>       0.00178571 </v>
   <v>       0.00178571 </v>
   <v>       0.00178571 </v>
   <v>       0.00178571 </v>
   <v>       0.00178571 </v>
   <v>       0.00178571 </v>
   <v>       0.00178571 </v>
   <v>       0.00178571 </v>
   <v>       0.00178571 </v>
   <v>       0.00178571 </v>
   <v>       0.00178571 </v>
   <v>       0.00178571 </v>
   <v>       0.00178571 </v>
   <v>       0.00178571 </v>
   <v>       0.00178571 </v>
   <v>       0.00178571 </v>
   <v>       0.00178571 </v>
   <v>       0.00178571 </v>
   <v>       0.00178571 </v>
   <v>       0.00178571 </v>
   <v>       0.00178571 </v>
   <v>       0.00178571 </v>
   <v>       0.00178571 </v>
   <v>       0.00178571 </v>
   <v>       0.00178571 </v>
   <v>       0.00178571 </v>
   <v>       0.00178571 </v>
   <v>       0.00178571 </v>
   <v>       0.00178571 </v>
   <v>       0.00178571 </v>
   <v>       0.00178571 </v>
   <v>       0.00178571 </v>
   <v>       0.00178571 </v>
   <v>       0.00178571 </v>
   <v>       0.00178571 </v>
   <v>       0.00178571 </v>
   <v>       0.00178571 </v>
   <v>       0.00178571 </v>
   <v>       0.00178571 </v>
   <v>       0.00178571 </v>
   <v>       0.00178571 </v>
   <v>       0.00178571 </v>
   <v>       0.00178571 </v>
   <v>       0.00178571 </v>
   <v>       0.00178571 </v>
   <v>       0.00178571 </v>
   <v>       0.00178571 </v>
   <v>       0.00178571 </v>
   <v>       0.00178571 </v>
   <v>       0.00178571 </v>
   <v>       0.00178571 </v>
   <v>       0.00178571 </v>
   <v>       0.00178571 </v>
   <v>       0.00178571 </v>
   <v>       0.00178571 </v>
   <v>       0.00178571 </v>
   <v>       0.00178571 </v>
   <v>       0.00178571 </v>
   <v>       0.00178571 </v>
   <v>       0.00178571 </v>
   <v>       0.00178571 </v>
   <v>       0.00178571 </v>
   <v>       0.00178571 </v>
   <v>       0.00178571 </v>
   <v>       0.00178571 </v>
   <v>       0.00178571 </v>
   <v>       0.00178571 </v>
   <v>       0.00178571 </v>
   <v>       0.00178571 </v>
   <v>       0.00178571 </v>
   <v>       0.00178571 </v>
   <v>       0.00178571 </v>
   <v>       0.00178571 </v>
   <v>       0.00178571 </v>
   <v>       0.00178571 </v>
   <v>       0.00178571 </v>
   <v>       0.00178571 </v>
   <v>       0.00178571 </v>
   <v>       0.00178571 </v>
   <v>       0.00178571 </v>
   <v>       0.00178571 </v>
   <v>       0.00178571 </v>
   <v>       0.00178571 </v>
   <v>       0.00178571 </v>
   <v>       0.00178571 </v>
   <v>       0.00178571 </v>
   <v>       0.00178571 </v>
   <v>       0.00178571 </v>
   <v>       0.00178571 </v>
   <v>       0.00178571 </v>
   <v>       0.00178571 </v>
   <v>       0.00178571 </v>
   <v>       0.00178571 </v>
   <v>       0.00178571 </v>
   <v>       0.00178571 </v>
   <v>       0.00178571 </v>
   <v>       0.00178571 </v>
   <v>       0.00178571 </v>
   <v>       0.00178571 </v>
   <v>       0.00178571 </v>
   <v>       0.00178571 </v>
   <v>       0.00178571 </v>
   <v>       0.00178571 </v>
   <v>       0.00178571 </v>
   <v>       0.00178571 </v>
   <v>       0.00178571 </v>
   <v>       0.00178571 </v>
   <v>       0.00178571 </v>
   <v>       0.00178571 </v>
   <v>       0.00178571 </v>
   <v>       0.00178571 </v>
   <v>       0.00178571 </v>
   <v>       0.00178571 </v>
   <v>       0.00178571 </v>
   <v>       0.00178571 </v>
   <v>       0.00178571 </v>
   <v>       0.00178571 </v>
   <v>       0.00178571 </v>
   <v>       0.00178571 </v>
   <v>       0.00178571 </v>
   <v>       0.00178571 </v>
   <v>       0.00178571 </v>
   <v>       0.00178571 </v>
   <v>       0.00178571 </v>
   <v>       0.00178571 </v>
   <v>       0.00178571 </v>
   <v>       0.00178571 </v>
   <v>       0.00178571 </v>
   <v>       0.00178571 </v>
   <v>       0.00178571 </v>
   <v>       0.00178571 </v>
   <v>       0.00178571 </v>
   <v>       0.00178571 </v>
   <v>       0.00178571 </v>
   <v>       0.00178571 </v>
   <v>       0.00178571 </v>
   <v>       0.00178571 </v>
   <v>       0.00178571 </v>
   <v>       0.00178571 </v>
   <v>       0.00178571 </v>
   <v>       0.00178571 </v>
   <v>       0.00178571 </v>
   <v>       0.00178571 </v>
   <v>       0.00178571 </v>
   <v>       0.00178571 </v>
   <v>       0.00178571 </v>
   <v>       0.00178571 </v>
   <v>       0.00178571 </v>
   <v>       0.00178571 </v>
   <v>       0.00178571 </v>
   <v>       0.00178571 </v>
   <v>       0.00178571 </v>
   <v>       0.00178571 </v>
   <v>       0.00178571 </v>
   <v>       0.00178571 </v>
   <v>       0.00178571 </v>
   <v>       0.00178571 </v>
   <v>       0.00178571 </v>
   <v>       0.00178571 </v>
   <v>       0.00178571 </v>
   <v>       0.00178571 </v>
   <v>       0.00178571 </v>
  </varray>
 </kpoints>
 <parameters>
  <separator name="general" >
   <i type="string" name="SYSTEM">Al fcc relaxation</i>
   <i type="logical" name="LCOMPAT"> F  </i>
  </separator>
  <separator name="electronic" >
   <i type="string" name="PREC">accura</i>
   <i name="ENMAX">    400.00000000</i>
   <i name="ENAUG">    291.05200000</i>
   <i name="EDIFF">      0.00000100</i>
   <i type="int" name="IALGO">    68</i>
   <i type="int" name="IWAVPR">    10</i>
   <i type="int" name="NBANDS">    32</i>
   <i name="NELECT">     24.00000000</i>
   <i type="int" name="TURBO">     0</i>
   <i type="int" name="IRESTART">     0</i>
   <i type="int" name="NREBOOT">     0</i>
   <i type="int" name="NMIN">     0</i>
   <i name="EREF">      0.00000000</i>
   <separator name="electronic smearing" >
    <i type="int" name="ISMEAR">     1</i>
    <i name="SIGMA">      0.20000000</i>
    <i name="KSPACING">      0.08000000</i>
    <i type="logical" name="KGAMMA"> T  </i>
   </separator>
   <separator name="electronic projectors" >
    <i type="logical" name="LREAL"> T  </i>
    <v name="ROPT">     -0.00025000</v>
    <i type="int" name="LMAXPAW">  -100</i>
    <i type="int" name="LMAXMIX">     2</i>
    <i type="logical" name="NLSPLINE"> F  </i>
   </separator>
   <separator name="electronic startup" >
    <i type="int" name="ISTART">     0</i>
    <i type="int" name="ICHARG">     2</i>
    <i type="int" name="INIWAV">     1</i>
   </separator>
   <separator name="electronic spin" >
    <i type="int" name="ISPIN">     1</i>
    <i type="logical" name="LNONCOLLINEAR"> F  </i>
    <v name="MAGMOM">      1.00000000      1.00000000      1.00000000      1.00000000      1.00000000      1.00000000      1.00000000      1.00000000</v>
    <i name="NUPDOWN">     -1.00000000</i>
    <i type="logical" name="LSORBIT"> F  </i>
    <v name="SAXIS">      0.00000000      0.00000000      1.00000000</v>
    <i type="logical" name="LSPIRAL"> F  </i>
    <v name="QSPIRAL">      0.00000000      0.00000000      0.00000000</v>
    <i type="logical" name="LZEROZ"> F  </i>
   </separator>
   <separator name="electronic exchange-correlation" >
    <i type="logical" name="LASPH"> F  </i>
    <i type="logical" name="LMETAGGA"> F  </i>
   </separator>
   <separator name="electronic convergence" >
    <i type="int" name="NELM">    60</i>
    <i type="int" name="NELMDL">    -5</i>
    <i type="int" name="NELMIN">     4</i>
    <i name="ENINI">    400.00000000</i>
    <separator name="electronic convergence detail" >
     <i type="logical" name="LDIAG"> T  </i>
     <i type="logical" name="LSUBROT"> F  </i>
     <i name="WEIMIN">      0.00000000</i>
     <i name="EBREAK">      0.00000001</i>
     <i name="DEPER">      0.30000000</i>
     <i type="int" name="NRMM">     4</i>
     <i name="TIME">      0.40000000</i>
    </separator>
   </separator>
   <separator name="electronic mixer" >
    <i name="AMIX">      0.40000000</i>
    <i name="BMIX">      1.00000000</i>
    <i name="AMIN">      0.10000000</i>
    <i name="AMIX_MAG">      1.60000000</i>
    <i name="BMIX_MAG">      1.00000000</i>
    <separator name="electronic mixer details" >
     <i type="int" name="IMIX">     4</i>
     <i type="logical" name="MIXFIRST"> F  </i>
     <i type="int" name="MAXMIX">   -45</i>
     <i name="WC">    100.00000000</i>
     <i type="int" name="INIMIX">     1</i>
     <i type="int" name="MIXPRE">     1</i>
     <i type="int" name="MREMOVE">     5</i>
    </separator>
   </separator>
   <separator name="electronic dipolcorrection" >
    <i type="logical" name="LDIPOL"> F  </i>
    <i type="logical" name="LMONO"> F  </i>
    <i type="int" name="IDIPOL">     0</i>
    <i name="EPSILON">      1.00000000</i>
    <v name="DIPOL">   -100.00000000   -100.00000000   -100.00000000</v>
    <i name="EFIELD">      0.00000000</i>
   </separator>
  </separator>
  <separator name="grids" >
   <i type="int" name="NGX">    20</i>
   <i type="int" name="NGY">    28</i>
   <i type="int" name="NGZ">   150</i>
   <i type="int" name="NGXF">    40</i>
   <i type="int" name="NGYF">    56</i>
   <i type="int" name="NGZF">   300</i>
   <i type="logical" name="ADDGRID"> F  </i>
  </separator>
  <separator name="ionic" >
   <i type="int" name="NSW">     0</i>
   <i type="int" name="IBRION">    -1</i>
   <i type="int" name="MDALGO">     0</i>
   <i type="int" name="ISIF">     3</i>
   <i name="PSTRESS">      0.00000000</i>
   <i name="EDIFFG">      0.00001000</i>
   <i type="int" name="NFREE">     1</i>
   <i name="POTIM">      0.50000000</i>
   <i name="SMASS">     -3.00000000</i>
   <i name="SCALEE">      1.00000000</i>
  </separator>
  <separator name="ionic md" >
   <i name="TEBEG">      0.00010000</i>
   <i name="TEEND">      0.00010000</i>
   <i type="int" name="NBLOCK">     1</i>
   <i type="int" name="KBLOCK">     1</i>
   <i type="int" name="NPACO">   256</i>
   <i name="APACO">     16.00000000</i>
  </separator>
  <separator name="symmetry" >
   <i type="int" name="ISYM">     2</i>
   <i name="SYMPREC">      0.00001000</i>
  </separator>
  <separator name="dos" >
   <i type="int" name="LORBIT">     0</i>
   <v name="RWIGS">     -1.00000000</v>
   <i type="int" name="NEDOS">   301</i>
   <i name="EMIN">     10.00000000</i>
   <i name="EMAX">    -10.00000000</i>
   <i name="EFERMI">      0.00000000</i>
  </separator>
  <separator name="writing" >
   <i type="int" name="NWRITE">     2</i>
   <i type="logical" name="LWAVE"> F  </i>
   <i type="logical" name="LDOWNSAMPLE"> F  </i>
   <i type="logical" name="LCHARG"> F  </i>
   <i type="logical" name="LPARD"> F  </i>
   <i type="logical" name="LVTOT"> F  </i>
   <i type="logical" name="LVHAR"> F  </i>
   <i type="logical" name="LELF"> F  </i>
   <i type="logical" name="LOPTICS"> F  </i>
   <v name="STM">      0.00000000      0.00000000      0.00000000      0.00000000      0.00000000      0.00000000      0.00000000</v>
  </separator>
  <separator name="performance" >
   <i type="int" name="NPAR">    32</i>
   <i type="int" name="NSIM">     4</i>
   <i type="int" name="NBLK">    -1</i>
   <i type="logical" name="LPLANE"> T  </i>
   <i type="logical" name="LSCALAPACK"> T  </i>
   <i type="logical" name="LSCAAWARE"> F  </i>
   <i type="logical" name="LSCALU"> F  </i>
   <i type="logical" name="LASYNC"> F  </i>
   <i type="logical" name="LORBITALREAL"> F  </i>
  </separator>
  <separator name="miscellaneous" >
   <i type="int" name="IDIOT">     3</i>
   <i type="int" name="ISPECIAL">     0</i>
   <i type="logical" name="LMUSIC"> F  </i>
   <v name="POMASS">     26.98100000</v>
   <v name="DARWINR">      0.00000000</v>
   <v name="DARWINV">      1.00000000</v>
   <i type="logical" name="LCORR"> T  </i>
  </separator>
  <i type="logical" name="GGA_COMPAT"> T  </i>
  <i type="logical" name="LBERRY"> F  </i>
  <i type="int" name="ICORELEVEL">     0</i>
  <i type="logical" name="LDAU"> F  </i>
  <i type="int" name="I_CONSTRAINED_M">     0</i>
  <separator name="electronic exchange-correlation" >
   <i type="string" name="GGA">--</i>
   <i type="int" name="VOSKOWN">     0</i>
   <i type="logical" name="LHFCALC"> F  </i>
   <i type="string" name="PRECFOCK"></i>
   <i type="logical" name="LSYMGRAD"> F  </i>
   <i type="logical" name="LHFONE"> F  </i>
   <i type="logical" name="LRHFCALC"> F  </i>
   <i type="logical" name="LTHOMAS"> F  </i>
   <i type="logical" name="LMODELHF"> F  </i>
   <i name="ENCUT4O">     -1.00000000</i>
   <i type="int" name="EXXOEP">     0</i>
   <i type="int" name="FOURORBIT">     0</i>
   <i name="AEXX">      0.00000000</i>
   <i name="HFALPHA">      0.00000000</i>
   <i name="MCALPHA">      0.00000000</i>
   <i name="ALDAX">      1.00000000</i>
   <i name="AGGAX">      1.00000000</i>
   <i name="ALDAC">      1.00000000</i>
   <i name="AGGAC">      1.00000000</i>
   <i type="int" name="NKREDX">     1</i>
   <i type="int" name="NKREDY">     1</i>
   <i type="int" name="NKREDZ">     1</i>
   <i type="logical" name="SHIFTRED"> F  </i>
   <i type="logical" name="ODDONLY"> F  </i>
   <i type="logical" name="EVENONLY"> F  </i>
   <i type="int" name="LMAXFOCK">     0</i>
   <i type="int" name="NMAXFOCKAE">     0</i>
   <i type="logical" name="LFOCKAEDFT"> F  </i>
   <i name="HFSCREEN">      0.00000000</i>
   <i name="HFSCREENC">      0.00000000</i>
   <i type="int" name="NBANDSGWLOW">     0</i>
  </separator>
  <separator name="vdW DFT" >
   <i type="logical" name="LUSE_VDW"> F  </i>
   <i name="Zab_VDW">     -0.84910000</i>
   <i name="PARAM1">      0.12340000</i>
   <i name="PARAM2">      1.00000000</i>
   <i name="PARAM3">      0.00000000</i>
  </separator>
  <separator name="model GW" >
   <i type="int" name="MODEL_GW">     0</i>
   <i name="MODEL_EPS0">     19.76606116</i>
   <i name="MODEL_ALPHA">      1.00000000</i>
  </separator>
  <separator name="linear response parameters" >
   <i type="logical" name="LEPSILON"> F  </i>
   <i type="logical" name="LRPA"> F  </i>
   <i type="logical" name="LNABLA"> F  </i>
   <i type="logical" name="LVEL"> F  </i>
   <i type="int" name="KINTER">     0</i>
   <i name="CSHIFT">      0.10000000</i>
   <i name="OMEGAMAX">     -1.00000000</i>
   <i name="DEG_THRESHOLD">      0.00200000</i>
   <i name="RTIME">     -0.10000000</i>
   <i name="WPLASMAI">      0.00000000</i>
   <v name="DFIELD">      0.00000000      0.00000000      0.00000000</v>
   <v name="WPLASMA">      0.00000000      0.00000000      0.00000000      0.00000000      0.00000000      0.00000000      0.00000000      0.00000000      0.00000000</v>
  </separator>
  <separator name="orbital magnetization" >
   <i type="logical" name="NUCIND"> F  </i>
   <v name="MAGPOS">      0.00000000      0.00000000      0.00000000</v>
   <i type="logical" name="LNICSALL"> T  </i>
   <i type="logical" name="ORBITALMAG"> F  </i>
   <i type="logical" name="LMAGBLOCH"> F  </i>
   <i type="logical" name="LCHIMAG"> F  </i>
   <i type="logical" name="LGAUGE"> T  </i>
   <i type="int" name="MAGATOM">     0</i>
   <v name="MAGDIPOL">      0.00000000      0.00000000      0.00000000</v>
   <v name="AVECCONST">      0.00000000      0.00000000      0.00000000</v>
  </separator>
  <separator name="response functions" >
   <i type="logical" name="LADDER"> F  </i>
   <i type="logical" name="LRPAFORCE"> F  </i>
   <i type="logical" name="LFXC"> F  </i>
   <i type="logical" name="LHARTREE"> T  </i>
   <i type="int" name="IBSE">     0</i>
   <v type="int" name="KPOINT">    -1     0     0     0</v>
   <i type="logical" name="LTCTE"> F  </i>
   <i type="logical" name="LTETE"> F  </i>
   <i type="logical" name="LTRIPLET"> F  </i>
   <i type="logical" name="LFXCEPS"> F  </i>
   <i type="logical" name="LFXHEG"> F  </i>
   <i type="int" name="NATURALO">     2</i>
   <i type="logical" name="L2ORDER"> F  </i>
   <i type="logical" name="LMP2LT"> F  </i>
   <i type="logical" name="LUSEW"> F  </i>
   <i name="ENCUTGW">     -2.00000000</i>
   <i name="ENCUTGWSOFT">     -2.00000000</i>
   <i name="ENCUTLF">     -1.00000000</i>
   <i type="int" name="LMAXMP2">    -1</i>
   <i name="SCISSOR">      0.00000000</i>
   <i type="int" name="NOMEGA">     0</i>
   <i type="int" name="NOMEGAR">     0</i>
   <i type="int" name="NBANDSGW">    -1</i>
   <i type="int" name="NBANDSO">    -1</i>
   <i type="int" name="NBANDSV">    -1</i>
   <i type="int" name="NELM">    60</i>
   <i type="int" name="NELMHF">     1</i>
   <i type="int" name="DIM">     3</i>
   <i type="int" name="ANTIRES">     0</i>
   <i name="OMEGAMAX">    -30.00000000</i>
   <i name="OMEGAMIN">    -30.00000000</i>
   <i name="OMEGATL">   -200.00000000</i>
   <i type="int" name="OMEGAGRID">   140</i>
   <i name="CSHIFT">     -0.10000000</i>
   <i type="logical" name="SELFENERGY"> F  </i>
   <i type="logical" name="LSPECTRAL"> F  </i>
   <i type="logical" name="LSPECTRALGW"> F  </i>
   <i type="logical" name="LSINGLES"> F  </i>
   <i type="logical" name="LFERMIGW"> F  </i>
   <i type="logical" name="ODDONLYGW"> F  </i>
   <i type="logical" name="EVENONLYGW"> F  </i>
   <i type="int" name="NKREDLFX">     1</i>
   <i type="int" name="NKREDLFY">     1</i>
   <i type="int" name="NKREDLFZ">     1</i>
   <i type="int" name="MAXMEM">  2800</i>
   <i type="int" name="TELESCOPE">     0</i>
   <i type="int" name="TAUPAR">     1</i>
   <i type="int" name="OMEGAPAR">    -1</i>
   <i name="LAMBDA">      1.00000000</i>
  </separator>
  <separator name="External order field" >
   <i name="OFIELD_KAPPA">      0.00000000</i>
   <v name="OFIELD_K">      0.00000000      0.00000000      0.00000000</v>
   <i name="OFIELD_Q6_NEAR">      0.00000000</i>
   <i name="OFIELD_Q6_FAR">      0.00000000</i>
   <i name="OFIELD_A">      0.00000000</i>
  </separator>
 </parameters>
 <atominfo>
  <atoms>       8 </atoms>
  <types>       1 </types>
  <array name="atoms" >
   <dimension dim="1">ion</dimension>
   <field type="string">element</field>
   <field type="int">atomtype</field>
   <set>
    <rc><c>Al</c><c>   1</c></rc>
    <rc><c>Al</c><c>   1</c></rc>
    <rc><c>Al</c><c>   1</c></rc>
    <rc><c>Al</c><c>   1</c></rc>
    <rc><c>Al</c><c>   1</c></rc>
    <rc><c>Al</c><c>   1</c></rc>
    <rc><c>Al</c><c>   1</c></rc>
    <rc><c>Al</c><c>   1</c></rc>
   </set>
  </array>
  <array name="atomtypes" >
   <dimension dim="1">type</dimension>
   <field type="int">atomspertype</field>
   <field type="string">element</field>
   <field>mass</field>
   <field>valence</field>
   <field type="string">pseudopotential</field>
   <set>
    <rc><c>   8</c><c>Al</c><c>     26.98100000</c><c>      3.00000000</c><c>  PAW_PBE Al 04Jan2001                  </c></rc>
   </set>
  </array>
 </atominfo>
 <structure name="initialpos" >
  <crystal>
   <varray name="basis" >
    <v>       2.85595457       0.00000000       0.00000000 </v>
    <v>      -0.00000000       4.03892969       0.00000000 </v>
    <v>       0.01000000       0.00000000      22.84763660 </v>
   </varray>
   <i name="volume">    263.54748209 </i>
   <varray name="rec_basis" >
    <v>       0.35014563       0.00000000      -0.00015325 </v>
    <v>       0.00000000       0.24759035       0.00000000 </v>
    <v>      -0.00000000      -0.00000000       0.04376820 </v>
   </varray>
  </crystal>
  <varray name="positions" >
   <v>       0.75000000       0.00000000       0.09375000 </v>
   <v>       0.25000000       0.50000000       0.03125000 </v>
   <v>       0.75000000       0.00000000       0.21875000 </v>
   <v>       0.25000000       0.50000000       0.15625000 </v>
   <v>       0.75000000       0.00000000       0.34375000 </v>
   <v>       0.25000000       0.50000000       0.28125000 </v>
   <v>       0.75000000       0.00000000       0.46875000 </v>
   <v>       0.25000000       0.50000000       0.40625000 </v>
  </varray>
 </structure>
 <calculation>
  <scstep>
   <time name="dav">   27.37   28.08</time>
   <time name="total">   27.40   28.14</time>
   <energy>
    <i name="alphaZ">     -0.81565505 </i>
    <i name="ewald">   1603.64494638 </i>
    <i name="hartreedc">  -2022.68553459 </i>
    <i name="XCdc">   -211.48643577 </i>
    <i name="pawpsdc">    529.60125701 </i>
    <i name="pawaedc">   -273.96496605 </i>
    <i name="eentropy">      0.00116755 </i>
    <i name="bandstr">    -43.56916649 </i>
    <i name="atom">    428.30523457 </i>
    <i name="e_fr_energy">      9.03084756 </i>
    <i name="e_wo_entrp">      9.02968002 </i>
    <i name="e_0_energy">      9.03045838 </i>
   </energy>
  </scstep>
  <scstep>
   <time name="dav">   39.71   40.87</time>
   <time name="total">   39.72   40.88</time>
   <energy>
    <i name="e_fr_energy">    -29.42844306 </i>
    <i name="e_wo_entrp">    -29.42279450 </i>
    <i name="e_0_energy">    -29.42656021 </i>
   </energy>
  </scstep>
  <scstep>
   <time name="dav">   41.95   43.12</time>
   <time name="total">   41.96   43.13</time>
   <energy>
    <i name="e_fr_energy">    -29.75908354 </i>
    <i name="e_wo_entrp">    -29.75326163 </i>
    <i name="e_0_energy">    -29.75714290 </i>
   </energy>
  </scstep>
  <scstep>
   <time name="dav">   50.45   52.05</time>
   <time name="total">   50.46   52.06</time>
   <energy>
    <i name="e_fr_energy">    -29.76189041 </i>
    <i name="e_wo_entrp">    -29.75606788 </i>
    <i name="e_0_energy">    -29.75994956 </i>
   </energy>
  </scstep>
  <scstep>
   <time name="dav">   38.71   39.73</time>
   <time name="total">   39.81   40.86</time>
   <energy>
    <i name="e_fr_energy">    -29.76190214 </i>
    <i name="e_wo_entrp">    -29.75607961 </i>
    <i name="e_0_energy">    -29.75996130 </i>
   </energy>
  </scstep>
  <scstep>
   <time name="diag">    6.62    6.79</time>
   <time name="diis">   16.73   17.20</time>
   <time name="orth">    0.29    0.29</time>
   <time name="total">   24.94   25.73</time>
   <energy>
    <i name="e_fr_energy">    -29.02376007 </i>
    <i name="e_wo_entrp">    -29.02291496 </i>
    <i name="e_0_energy">    -29.02347837 </i>
   </energy>
  </scstep>
  <scstep>
   <time name="diag">    6.61    6.83</time>
   <time name="diis">   16.40   16.89</time>
   <time name="orth">    0.67    0.69</time>
   <time name="total">   24.84   25.59</time>
   <energy>
    <i name="e_fr_energy">    -28.63415525 </i>
    <i name="e_wo_entrp">    -28.63298886 </i>
    <i name="e_0_energy">    -28.63376645 </i>
   </energy>
  </scstep>
  <scstep>
   <time name="diag">    6.47    6.64</time>
   <time name="diis">   18.07   18.61</time>
   <time name="orth">    0.29    0.30</time>
   <time name="total">   26.19   26.97</time>
   <energy>
    <i name="e_fr_energy">    -28.54519312 </i>
    <i name="e_wo_entrp">    -28.54267894 </i>
    <i name="e_0_energy">    -28.54435506 </i>
   </energy>
  </scstep>
  <scstep>
   <time name="diag">    6.31    6.46</time>
   <time name="diis">   18.37   18.96</time>
   <time name="orth">    0.36    0.36</time>
   <time name="total">   26.60   27.37</time>
   <energy>
    <i name="e_fr_energy">    -28.53945814 </i>
    <i name="e_wo_entrp">    -28.53703199 </i>
    <i name="e_0_energy">    -28.53864943 </i>
   </energy>
  </scstep>
  <scstep>
   <time name="diag">    6.43    6.60</time>
   <time name="diis">   19.42   20.02</time>
   <time name="orth">    0.29    0.30</time>
   <time name="total">   27.65   28.49</time>
   <energy>
    <i name="e_fr_energy">    -28.53801186 </i>
    <i name="e_wo_entrp">    -28.53551047 </i>
    <i name="e_0_energy">    -28.53717807 </i>
   </energy>
  </scstep>
  <scstep>
   <time name="diag">    5.85    5.96</time>
   <time name="diis">   18.36   18.94</time>
   <time name="orth">    0.30    0.30</time>
   <time name="total">   26.07   26.82</time>
   <energy>
    <i name="e_fr_energy">    -28.53696701 </i>
    <i name="e_wo_entrp">    -28.53446509 </i>
    <i name="e_0_energy">    -28.53613304 </i>
   </energy>
  </scstep>
  <scstep>
   <time name="diag">    6.55    6.70</time>
   <time name="diis">   18.59   19.11</time>
   <time name="orth">    0.43    0.44</time>
   <time name="total">   27.22   27.96</time>
   <energy>
    <i name="e_fr_energy">    -28.53659286 </i>
    <i name="e_wo_entrp">    -28.53405212 </i>
    <i name="e_0_energy">    -28.53574595 </i>
   </energy>
  </scstep>
  <scstep>
   <time name="diag">    6.88    7.07</time>
   <time name="diis">   18.07   18.66</time>
   <time name="orth">    0.29    0.30</time>
   <time name="total">   26.67   27.52</time>
   <energy>
    <i name="e_fr_energy">    -28.53658874 </i>
    <i name="e_wo_entrp">    -28.53403475 </i>
    <i name="e_0_energy">    -28.53573741 </i>
   </energy>
  </scstep>
  <scstep>
   <time name="diag">    6.05    6.22</time>
   <time name="diis">   17.13   17.68</time>
   <time name="orth">    0.38    0.40</time>
   <time name="total">   25.10   25.89</time>
   <energy>
    <i name="e_fr_energy">    -28.53684975 </i>
    <i name="e_wo_entrp">    -28.53429961 </i>
    <i name="e_0_energy">    -28.53599970 </i>
   </energy>
  </scstep>
  <scstep>
   <time name="diag">    6.40    6.57</time>
   <time name="diis">   16.99   17.53</time>
   <time name="orth">    0.43    0.44</time>
   <time name="total">   25.48   26.28</time>
   <energy>
    <i name="e_fr_energy">    -28.53718276 </i>
    <i name="e_wo_entrp">    -28.53463160 </i>
    <i name="e_0_energy">    -28.53633238 </i>
   </energy>
  </scstep>
  <scstep>
   <time name="diag">    5.66    5.82</time>
   <time name="diis">   16.17   16.71</time>
   <time name="orth">    0.44    0.45</time>
   <time name="total">   23.82   24.59</time>
   <energy>
    <i name="e_fr_energy">    -28.53735461 </i>
    <i name="e_wo_entrp">    -28.53480623 </i>
    <i name="e_0_energy">    -28.53650515 </i>
   </energy>
  </scstep>
  <scstep>
   <time name="diag">    6.11    6.26</time>
   <time name="diis">   16.70   17.23</time>
   <time name="orth">    0.29    0.30</time>
   <time name="total">   24.58   25.31</time>
   <energy>
    <i name="e_fr_energy">    -28.53738959 </i>
    <i name="e_wo_entrp">    -28.53483943 </i>
    <i name="e_0_energy">    -28.53653953 </i>
   </energy>
  </scstep>
  <scstep>
   <time name="diag">    6.26    6.44</time>
   <time name="diis">   15.93   16.40</time>
   <time name="orth">    0.29    0.30</time>
   <time name="total">   24.09   24.80</time>
   <energy>
    <i name="e_fr_energy">    -28.53740423 </i>
    <i name="e_wo_entrp">    -28.53485325 </i>
    <i name="e_0_energy">    -28.53655391 </i>
   </energy>
  </scstep>
  <scstep>
   <time name="diag">    5.97    6.12</time>
   <time name="diis">   15.65   16.15</time>
   <time name="orth">    0.30    0.30</time>
   <time name="total">   21.94   22.61</time>
   <energy>
    <i name="alphaZ">     -0.81565505 </i>
    <i name="ewald">   1603.64494638 </i>
    <i name="hartreedc">  -2052.76686456 </i>
    <i name="XCdc">   -210.51072561 </i>
    <i name="pawpsdc">   1058.47962550 </i>
    <i name="pawaedc">   -802.93219913 </i>
    <i name="eentropy">     -0.00255102 </i>
    <i name="bandstr">    -51.93921608 </i>
    <i name="atom">    428.30523457 </i>
    <i name="e_fr_energy">    -28.53740499 </i>
    <i name="e_wo_entrp">    -28.53485397 </i>
    <i name="e_0_energy">    -28.53655465 </i>
   </energy>
  </scstep>
  <structure>
   <crystal>
    <varray name="basis" >
     <v>       2.85595457       0.00000000       0.00000000 </v>
     <v>      -0.00000000       4.03892969       0.00000000 </v>
     <v>       0.01000000       0.00000000      22.84763660 </v>
    </varray>
    <i name="volume">    263.54748209 </i>
    <varray name="rec_basis" >
     <v>       0.35014563       0.00000000      -0.00015325 </v>
     <v>       0.00000000       0.24759035       0.00000000 </v>
     <v>      -0.00000000      -0.00000000       0.04376820 </v>
    </varray>
   </crystal>
   <varray name="positions" >
    <v>       0.75000000       0.00000000       0.09375000 </v>
    <v>       0.25000000       0.50000000       0.03125000 </v>
    <v>       0.75000000       0.00000000       0.21875000 </v>
    <v>       0.25000000       0.50000000       0.15625000 </v>
    <v>       0.75000000       0.00000000       0.34375000 </v>
    <v>       0.25000000       0.50000000       0.28125000 </v>
    <v>       0.75000000       0.00000000       0.46875000 </v>
    <v>       0.25000000       0.50000000       0.40625000 </v>
   </varray>
  </structure>
  <varray name="forces" >
   <v>       0.00007135       0.00000000      -0.20512332 </v>
   <v>       0.00078956       0.00000000       0.16240067 </v>
   <v>      -0.00001370       0.00000000      -0.05221756 </v>
   <v>      -0.00001631       0.00000000      -0.03678220 </v>
   <v>       0.00001631       0.00000000       0.03678220 </v>
   <v>       0.00001370       0.00000000       0.05221756 </v>
   <v>      -0.00078956       0.00000000      -0.16240067 </v>
   <v>      -0.00007135       0.00000000       0.20512332 </v>
  </varray>
  <varray name="stress" >
   <v>     -17.73166763       0.00000000      -0.04868158 </v>
   <v>       0.00000000      -8.47404355      -0.00000000 </v>
   <v>      -0.04868159      -0.00000000       0.36713044 </v>
  </varray>
  <energy>
   <i name="e_fr_energy">    -28.53740499 </i>
   <i name="e_wo_entrp">    -28.53655465 </i>
   <i name="e_0_energy">     -0.00255102 </i>
  </energy>
  <time name="totalsc">  582.04  599.49</time>
  <eigenvalues>
   <array>
    <dimension dim="1">band</dimension>
    <dimension dim="2">kpoint</dimension>
    <dimension dim="3">spin</dimension>
    <field>eigene</field>
    <field>occ</field>
    <set>
     <set comment="spin 1">
      <set comment="kpoint 1">
       <r>   -8.8509    1.0000 </r>
       <r>   -8.0923    1.0000 </r>
       <r>   -6.8693    1.0000 </r>
       <r>   -5.2647    1.0000 </r>
       <r>   -3.3845    1.0000 </r>
       <r>   -1.3790    1.0000 </r>
       <r>   -0.7764    1.0000 </r>
       <r>   -0.0708    1.0000 </r>
       <r>    0.6168    1.0000 </r>
       <r>    0.8377    1.0000 </r>
       <r>    1.0826    1.0000 </r>
       <r>    1.6157    1.0119 </r>
       <r>    2.4580   -0.0023 </r>
       <r>    2.6458   -0.0000 </r>
       <r>    3.1030   -0.0000 </r>
       <r>    4.5059   -0.0000 </r>
       <r>    4.5337   -0.0000 </r>
       <r>    4.7697   -0.0000 </r>
       <r>    5.8835   -0.0000 </r>
       <r>    6.2399   -0.0000 </r>
       <r>    6.6508   -0.0000 </r>
[...]
       <r>   -6.6928    1.0000 </r>
       <r>   -6.2519    1.0000 </r>
       <r>   -5.9484    1.0000 </r>
       <r>   -5.5219    1.0000 </r>
       <r>   -4.7407    1.0000 </r>
       <r>   -4.3397    1.0000 </r>
       <r>   -3.1083    1.0000 </r>
       <r>   -2.7287    1.0000 </r>
       <r>   -1.2732    1.0000 </r>
       <r>   -0.9380    1.0000 </r>
       <r>    0.8951    1.0000 </r>
       <r>    1.1644    1.0000 </r>
       <r>    3.1265   -0.0000 </r>
       <r>    3.3667   -0.0000 </r>
       <r>    5.2139   -0.0000 </r>
       <r>    5.4956   -0.0000 </r>
       <r>    6.9388   -0.0000 </r>
       <r>    7.1192   -0.0000 </r>
       <r>    7.4945    0.0000 </r>
       <r>    7.7143    0.0000 </r>
       <r>    8.0762    0.0000 </r>
       <r>    8.2440    0.0000 </r>
       <r>    8.4984    0.0000 </r>
       <r>    8.6441    0.0000 </r>
       <r>    9.0899    0.0000 </r>
       <r>    9.2671    0.0000 </r>
       <r>    9.6058    0.0000 </r>
       <r>   10.0697    0.0000 </r>
       <r>   10.6911    0.0000 </r>
       <r>   10.8317    0.0000 </r>
       <r>   11.0699    0.0000 </r>
       <r>   11.2836    0.0000 </r>
      </set>
      <set comment="kpoint 559">
       <r>   -6.7838    1.0000 </r>
       <r>   -6.3427    1.0000 </r>
       <r>   -6.0391    1.0000 </r>
       <r>   -5.6124    1.0000 </r>
       <r>   -4.8309    1.0000 </r>
       <r>   -4.4295    1.0000 </r>
       <r>   -3.1982    1.0000 </r>
       <r>   -2.8186    1.0000 </r>
       <r>   -1.3603    1.0000 </r>
       <r>   -1.0250    1.0000 </r>
       <r>    0.8097    1.0000 </r>
       <r>    1.0795    1.0000 </r>
       <r>    3.0461   -0.0000 </r>
       <r>    3.2874   -0.0000 </r>
       <r>    5.1525   -0.0000 </r>
       <r>    5.4364   -0.0000 </r>
       <r>    6.9248   -0.0000 </r>
       <r>    7.2860   -0.0000 </r>
       <r>    7.8151    0.0000 </r>
       <r>    8.2427    0.0000 </r>
       <r>    8.3996    0.0000 </r>
       <r>    8.7552    0.0000 </r>
       <r>    9.0376    0.0000 </r>
       <r>    9.2114    0.0000 </r>
       <r>    9.3963    0.0000 </r>
       <r>    9.5947    0.0000 </r>
       <r>    9.7639    0.0000 </r>
       <r>   10.0107    0.0000 </r>
       <r>   10.2879    0.0000 </r>
       <r>   10.6055    0.0000 </r>
       <r>   10.6935    0.0000 </r>
       <r>   11.2003    0.0000 </r>
      </set>
      <set comment="kpoint 560">
       <r>   -6.8294    1.0000 </r>
       <r>   -6.3881    1.0000 </r>
       <r>   -6.0845    1.0000 </r>
       <r>   -5.6576    1.0000 </r>
       <r>   -4.8760    1.0000 </r>
       <r>   -4.4744    1.0000 </r>
       <r>   -3.2432    1.0000 </r>
       <r>   -2.8636    1.0000 </r>
       <r>   -1.4039    1.0000 </r>
       <r>   -1.0686    1.0000 </r>
       <r>    0.7669    1.0000 </r>
       <r>    1.0369    1.0000 </r>
       <r>    3.0055   -0.0000 </r>
       <r>    3.2472   -0.0000 </r>
       <r>    5.1183   -0.0000 </r>
       <r>    5.4032   -0.0000 </r>
       <r>    6.8983   -0.0000 </r>
       <r>    7.2711   -0.0000 </r>
       <r>    7.8256    0.0000 </r>
       <r>    8.2592    0.0000 </r>
       <r>    8.8641    0.0000 </r>
       <r>    9.2234    0.0000 </r>
       <r>    9.3176    0.0000 </r>
       <r>    9.6363    0.0000 </r>
       <r>    9.6956    0.0000 </r>
       <r>    9.9423    0.0000 </r>
       <r>   10.0571    0.0000 </r>
       <r>   10.0791    0.0000 </r>
       <r>   10.4404    0.0000 </r>
       <r>   10.6159    0.0000 </r>
       <r>   11.1312    0.0000 </r>
       <r>   11.1381    0.0000 </r>
      </set>
     </set>
    </set>
   </array>
  </eigenvalues>
  <separator name="orbital magnetization" >
   <v name="MAGDIPOLOUT">      0.00000000      0.00000000      0.00000000</v>
  </separator>
  <dos>
   <i name="efermi">      1.98953028 </i>
   <total>
    <array>
     <dimension dim="1">gridpoints</dimension>
     <dimension dim="2">spin</dimension>
     <field>energy</field>
     <field>total</field>
     <field>integrated</field>
     <set>
      <set comment="spin 1">
       <r>   -10.8509     0.0000     0.0000 </r>
       <r>   -10.7693     0.0000     0.0000 </r>
       <r>   -10.6877     0.0000     0.0000 </r>
       <r>   -10.6061     0.0000     0.0000 </r>
       <r>   -10.5245    -0.0000    -0.0000 </r>
       <r>   -10.4429    -0.0000    -0.0000 </r>
       <r>   -10.3613    -0.0000    -0.0000 </r>
       <r>   -10.2797    -0.0000    -0.0000 </r>
       <r>   -10.1980    -0.0000    -0.0000 </r>
       <r>   -10.1164    -0.0000    -0.0000 </r>
       <r>   -10.0348    -0.0000    -0.0000 </r>
       <r>    -9.9532    -0.0000    -0.0000 </r>
       <r>    -9.8716    -0.0000    -0.0000 </r>
       <r>    -9.7900    -0.0000    -0.0000 </r>
       <r>    -9.7084    -0.0000    -0.0000 </r>
       <r>    -9.6268    -0.0000    -0.0000 </r>
       <r>    -9.5452    -0.0000    -0.0000 </r>
       <r>    -9.4636    -0.0000    -0.0000 </r>
       <r>    -9.3819    -0.0002    -0.0000 </r>
       <r>    -9.3003    -0.0010    -0.0001 </r>
       <r>    -9.2187    -0.0043    -0.0004 </r>
       <r>    -9.1371    -0.0118    -0.0014 </r>
       <r>    -9.0555    -0.0159    -0.0027 </r>
       <r>    -8.9739     0.0131    -0.0016 </r>
       <r>    -8.8923     0.1109     0.0074 </r>
       <r>    -8.8107     0.2673     0.0292 </r>
       <r>    -8.7291     0.4133     0.0630 </r>
       <r>    -8.6475     0.4912     0.1031 </r>
       <r>    -8.5658     0.5068     0.1444 </r>
       <r>    -8.4842     0.4981     0.1851 </r>
       <r>    -8.4026     0.4866     0.2248 </r>
       <r>    -8.3210     0.4753     0.2636 </r>
       <r>    -8.2394     0.4893     0.3035 </r>
       <r>    -8.1578     0.5716     0.3501 </r>
       <r>    -8.0762     0.7138     0.4084 </r>
       <r>    -7.9946     0.8618     0.4787 </r>
       <r>    -7.9130     0.9739     0.5582 </r>
       <r>    -7.8314     1.0188     0.6414 </r>
       <r>    -7.7498     0.9968     0.7227 </r>
       <r>    -7.6681     0.9719     0.8020 </r>
       <r>    -7.5865     0.9923     0.8830 </r>
       <r>    -7.5049     1.0206     0.9663 </r>
       <r>    -7.4233     1.0009     1.0480 </r>
       <r>    -7.3417     0.9530     1.1257 </r>
       <r>    -7.2601     0.9577     1.2039 </r>
       <r>    -7.1785     1.0222     1.2873 </r>
       <r>    -7.0969     1.0358     1.3719 </r>
       <r>    -7.0153     0.9731     1.4513 </r>
       <r>    -6.9337     0.9937     1.5324 </r>
       <r>    -6.8520     1.1987     1.6302 </r>
       <r>    -6.7704     1.4509     1.7486 </r>
       <r>    -6.6888     1.5510     1.8752 </r>
       <r>    -6.6072     1.4880     1.9966 </r>
       <r>    -6.5256     1.4237     2.1128 </r>
       <r>    -6.4440     1.4670     2.2325 </r>
       <r>    -6.3624     1.5579     2.3597 </r>
       <r>    -6.2808     1.5823     2.4888 </r>
       <r>    -6.1992     1.5208     2.6129 </r>
       <r>    -6.1176     1.4389     2.7303 </r>
       <r>    -6.0360     1.4191     2.8462 </r>
       <r>    -5.9543     1.4996     2.9685 </r>
       <r>    -5.8727     1.5858     3.0979 </r>
       <r>    -5.7911     1.5528     3.2247 </r>
       <r>    -5.7095     1.4715     3.3448 </r>
       <r>    -5.6279     1.4951     3.4668 </r>
       <r>    -5.5463     1.5695     3.5949 </r>
       <r>    -5.4647     1.5404     3.7206 </r>
       <r>    -5.3831     1.4696     3.8405 </r>
       <r>    -5.3015     1.5634     3.9681 </r>
       <r>    -5.2199     1.8312     4.1175 </r>
       <r>    -5.1382     2.0341     4.2835 </r>
       <r>    -5.0566     2.0154     4.4480 </r>
       <r>    -4.9750     1.9048     4.6035 </r>
       <r>    -4.8934     1.9002     4.7585 </r>
       <r>    -4.8118     2.0184     4.9233 </r>
       <r>    -4.7302     2.1340     5.0974 </r>
       <r>    -4.6486     2.1403     5.2721 </r>
       <r>    -4.5670     2.0573     5.4400 </r>
       <r>    -4.4854     2.0184     5.6047 </r>
       <r>    -4.4038     2.0698     5.7736 </r>
       <r>    -4.3221     2.0649     5.9421 </r>
       <r>    -4.2405     1.9568     6.1018 </r>
       <r>    -4.1589     1.9448     6.2605 </r>
       <r>    -4.0773     2.1172     6.4333 </r>
       <r>    -3.9957     2.2890     6.6201 </r>
       <r>    -3.9141     2.2778     6.8060 </r>
       <r>    -3.8325     2.0793     6.9757 </r>
       <r>    -3.7509     1.8202     7.1243 </r>
       <r>    -3.6693     1.6479     7.2587 </r>
       <r>    -3.5877     1.6435     7.3929 </r>
       <r>    -3.5061     1.8371     7.5428 </r>
       <r>    -3.4244     2.1932     7.7218 </r>
       <r>    -3.3428     2.5685     7.9314 </r>
       <r>    -3.2612     2.8051     8.1603 </r>
       <r>    -3.1796     2.8137     8.3899 </r>
       <r>    -3.0980     2.5946     8.6017 </r>
       <r>    -3.0164     2.3093     8.7901 </r>
       <r>    -2.9348     2.2120     8.9707 </r>
       <r>    -2.8532     2.3748     9.1645 </r>
       <r>    -2.7716     2.6100     9.3775 </r>
       <r>    -2.6900     2.7343     9.6006 </r>
       <r>    -2.6083     2.7515     9.8252 </r>
       <r>    -2.5267     2.7388    10.0487 </r>
       <r>    -2.4451     2.6941    10.2685 </r>
       <r>    -2.3635     2.5785    10.4790 </r>
       <r>    -2.2819     2.4711    10.6806 </r>
       <r>    -2.2003     2.4952    10.8843 </r>
       <r>    -2.1187     2.5942    11.0960 </r>
       <r>    -2.0371     2.6307    11.3107 </r>
       <r>    -1.9555     2.5992    11.5228 </r>
       <r>    -1.8739     2.5411    11.7302 </r>
       <r>    -1.7923     2.4697    11.9317 </r>
       <r>    -1.7106     2.4371    12.1306 </r>
       <r>    -1.6290     2.4518    12.3307 </r>
       <r>    -1.5474     2.4365    12.5295 </r>
       <r>    -1.4658     2.4315    12.7280 </r>
       <r>    -1.3842     2.6225    12.9420 </r>
       <r>    -1.3026     3.0340    13.1896 </r>
       <r>    -1.2210     3.4052    13.4675 </r>
       <r>    -1.1394     3.4784    13.7514 </r>
       <r>    -1.0578     3.2556    14.0171 </r>
       <r>    -0.9762     2.9332    14.2564 </r>
       <r>    -0.8945     2.7848    14.4837 </r>
       <r>    -0.8129     3.0222    14.7304 </r>
       <r>    -0.7313     3.5143    15.0172 </r>
       <r>    -0.6497     3.8515    15.3315 </r>
       <r>    -0.5681     3.8443    15.6452 </r>
       <r>    -0.4865     3.6483    15.9429 </r>
       <r>    -0.4049     3.4034    16.2207 </r>
       <r>    -0.3233     3.1253    16.4758 </r>
       <r>    -0.2417     2.9431    16.7159 </r>
       <r>    -0.1601     3.0266    16.9629 </r>
       <r>    -0.0784     3.2184    17.2256 </r>
       <r>     0.0032     3.1778    17.4849 </r>
       <r>     0.0848     2.8714    17.7193 </r>
       <r>     0.1664     2.5626    17.9284 </r>
       <r>     0.2480     2.4313    18.1268 </r>
       <r>     0.3296     2.4430    18.3262 </r>
       <r>     0.4112     2.5293    18.5326 </r>
       <r>     0.4928     2.7235    18.7549 </r>
       <r>     0.5744     3.0412    19.0031 </r>
       <r>     0.6560     3.3575    19.2771 </r>
       <r>     0.7376     3.5148    19.5639 </r>
       <r>     0.8193     3.4415    19.8448 </r>
       <r>     0.9009     3.2088    20.1067 </r>
       <r>     0.9825     3.0643    20.3567 </r>
       <r>     1.0641     3.2126    20.6189 </r>
       <r>     1.1457     3.5618    20.9096 </r>
       <r>     1.2273     3.8321    21.2223 </r>
       <r>     1.3089     3.8527    21.5367 </r>
       <r>     1.3905     3.6977    21.8385 </r>
       <r>     1.4721     3.5174    22.1256 </r>
       <r>     1.5537     3.3705    22.4006 </r>
       <r>     1.6354     3.3089    22.6707 </r>
       <r>     1.7170     3.4207    22.9498 </r>
       <r>     1.7986     3.6918    23.2511 </r>
       <r>     1.8802     3.9382    23.5725 </r>
       <r>     1.9618     3.9479    23.8947 </r>
       <r>     2.0434     3.6721    24.1944 </r>
       <r>     2.1250     3.2736    24.4615 </r>
       <r>     2.2066     3.0004    24.7064 </r>
       <r>     2.2882     2.9930    24.9507 </r>
       <r>     2.3698     3.1833    25.2104 </r>
       <r>     2.4514     3.3418    25.4832 </r>
       <r>     2.5331     3.3251    25.7545 </r>
       <r>     2.6147     3.3194    26.0254 </r>
       <r>     2.6963     3.6011    26.3193 </r>
       <r>     2.7779     4.0443    26.6494 </r>
       <r>     2.8595     4.1903    26.9913 </r>
       <r>     2.9411     3.8437    27.3050 </r>
       <r>     3.0227     3.3982    27.5823 </r>
       <r>     3.1043     3.4537    27.8642 </r>
       <r>     3.1859     4.0905    28.1980 </r>
       <r>     3.2675     4.7390    28.5848 </r>
       <r>     3.3492     4.8952    28.9843 </r>
       <r>     3.4308     4.6684    29.3652 </r>
       <r>     3.5124     4.4430    29.7278 </r>
       <r>     3.5940     4.3501    30.0828 </r>
       <r>     3.6756     4.2849    30.4325 </r>
       <r>     3.7572     4.1187    30.7687 </r>
       <r>     3.8388     3.7982    31.0786 </r>
       <r>     3.9204     3.4416    31.3595 </r>
       <r>     4.0020     3.2623    31.6257 </r>
       <r>     4.0836     3.3278    31.8973 </r>
       <r>     4.1653     3.5457    32.1867 </r>
       <r>     4.2469     3.8684    32.5024 </r>
       <r>     4.3285     4.2611    32.8501 </r>
       <r>     4.4101     4.4618    33.2142 </r>
       <r>     4.4917     4.1808    33.5554 </r>
       <r>     4.5733     3.6765    33.8555 </r>
       <r>     4.6549     3.5858    34.1481 </r>
       <r>     4.7365     3.9781    34.4728 </r>
       <r>     4.8181     4.2861    34.8225 </r>
       <r>     4.8997     4.3133    35.1746 </r>
       <r>     4.9813     4.4027    35.5339 </r>
       <r>     5.0630     4.6072    35.9098 </r>
       <r>     5.1446     4.6546    36.2897 </r>
       <r>     5.2262     4.6076    36.6657 </r>
       <r>     5.3078     4.7648    37.0546 </r>
       <r>     5.3894     5.0479    37.4665 </r>
       <r>     5.4710     5.0648    37.8799 </r>
       <r>     5.5526     4.7388    38.2666 </r>
       <r>     5.6342     4.4395    38.6289 </r>
       <r>     5.7158     4.4315    38.9906 </r>
       <r>     5.7974     4.5581    39.3626 </r>
       <r>     5.8791     4.6085    39.7386 </r>
       <r>     5.9607     4.7029    40.1225 </r>
       <r>     6.0423     5.0082    40.5312 </r>
       <r>     6.1239     5.2811    40.9622 </r>
       <r>     6.2055     5.1353    41.3812 </r>
       <r>     6.2871     4.6660    41.7620 </r>
       <r>     6.3687     4.4273    42.1233 </r>
       <r>     6.4503     4.7552    42.5114 </r>
       <r>     6.5319     5.3547    42.9484 </r>
       <r>     6.6135     5.7126    43.4146 </r>
       <r>     6.6951     5.7290    43.8822 </r>
       <r>     6.7768     5.6782    44.3455 </r>
       <r>     6.8584     5.7217    44.8125 </r>
       <r>     6.9400     5.7494    45.2817 </r>
       <r>     7.0216     5.6351    45.7416 </r>
       <r>     7.1032     5.4574    46.1869 </r>
       <r>     7.1848     5.4162    46.6290 </r>
       <r>     7.2664     5.5888    47.0851 </r>
       <r>     7.3480     5.8493    47.5624 </r>
       <r>     7.4296     6.0002    48.0521 </r>
       <r>     7.5112     5.9177    48.5350 </r>
       <r>     7.5929     5.6988    49.0001 </r>
       <r>     7.6745     5.6727    49.4631 </r>
       <r>     7.7561     5.9854    49.9515 </r>
       <r>     7.8377     6.3214    50.4674 </r>
       <r>     7.9193     6.3657    50.9869 </r>
       <r>     8.0009     6.2296    51.4953 </r>
       <r>     8.0825     6.1555    51.9977 </r>
       <r>     8.1641     6.1775    52.5018 </r>
       <r>     8.2457     6.2386    53.0109 </r>
       <r>     8.3273     6.2496    53.5210 </r>
       <r>     8.4090     6.0334    54.0133 </r>
       <r>     8.4906     5.6329    54.4730 </r>
       <r>     8.5722     5.4472    54.9176 </r>
       <r>     8.6538     5.6758    55.3808 </r>
       <r>     8.7354     5.9947    55.8700 </r>
       <r>     8.8170     5.9948    56.3593 </r>
       <r>     8.8986     5.6170    56.8176 </r>
       <r>     8.9802     5.1438    57.2374 </r>
       <r>     9.0618     4.8910    57.6366 </r>
       <r>     9.1434     4.8818    58.0350 </r>
       <r>     9.2250     4.9335    58.4376 </r>
       <r>     9.3067     4.9689    58.8431 </r>
       <r>     9.3883     4.9764    59.2493 </r>
       <r>     9.4699     4.8603    59.6459 </r>
       <r>     9.5515     4.5780    60.0195 </r>
       <r>     9.6331     4.2187    60.3638 </r>
       <r>     9.7147     3.8640    60.6791 </r>
       <r>     9.7963     3.5454    60.9685 </r>
       <r>     9.8779     3.3209    61.2395 </r>
       <r>     9.9595     3.2478    61.5045 </r>
       <r>    10.0411     3.2685    61.7713 </r>
       <r>    10.1228     3.2033    62.0327 </r>
       <r>    10.2044     2.9046    62.2697 </r>
       <r>    10.2860     2.4430    62.4691 </r>
       <r>    10.3676     2.0916    62.6398 </r>
       <r>    10.4492     2.0222    62.8048 </r>
       <r>    10.5308     2.1175    62.9777 </r>
       <r>    10.6124     2.1626    63.1541 </r>
       <r>    10.6940     2.0504    63.3215 </r>
       <r>    10.7756     1.7857    63.4672 </r>
       <r>    10.8572     1.4537    63.5858 </r>
       <r>    10.9389     1.1685    63.6812 </r>
       <r>    11.0205     0.9882    63.7618 </r>
       <r>    11.1021     0.8812    63.8338 </r>
       <r>    11.1837     0.7605    63.8958 </r>
       <r>    11.2653     0.5711    63.9424 </r>
       <r>    11.3469     0.3514    63.9711 </r>
       <r>    11.4285     0.1779    63.9856 </r>
       <r>    11.5101     0.0816    63.9923 </r>
       <r>    11.5917     0.0444    63.9959 </r>
       <r>    11.6733     0.0316    63.9985 </r>
       <r>    11.7549     0.0187    64.0000 </r>
       <r>    11.8366     0.0050    64.0004 </r>
       <r>    11.9182    -0.0018    64.0003 </r>
       <r>    11.9998    -0.0022    64.0001 </r>
       <r>    12.0814    -0.0010    64.0000 </r>
       <r>    12.1630    -0.0002    64.0000 </r>
       <r>    12.2446    -0.0000    64.0000 </r>
       <r>    12.3262    -0.0000    64.0000 </r>
       <r>    12.4078    -0.0000    64.0000 </r>
       <r>    12.4894    -0.0000    64.0000 </r>
       <r>    12.5710    -0.0000    64.0000 </r>
       <r>    12.6527    -0.0000    64.0000 </r>
       <r>    12.7343    -0.0000    64.0000 </r>
       <r>    12.8159    -0.0000    64.0000 </r>
       <r>    12.8975    -0.0000    64.0000 </r>
       <r>    12.9791     0.0000    64.0000 </r>
       <r>    13.0607     0.0000    64.0000 </r>
       <r>    13.1423     0.0000    64.0000 </r>
       <r>    13.2239     0.0000    64.0000 </r>
       <r>    13.3055     0.0000    64.0000 </r>
       <r>    13.3871     0.0000    64.0000 </r>
       <r>    13.4687     0.0000    64.0000 </r>
       <r>    13.5504     0.0000    64.0000 </r>
       <r>    13.6320     0.0000    64.0000 </r>
      </set>
     </set>
    </array>
   </total>
  </dos>
 </calculation>
 <structure name="finalpos" >
  <crystal>
   <varray name="basis" >
    <v>       2.85595457       0.00000000       0.00000000 </v>
    <v>      -0.00000000       4.03892969       0.00000000 </v>
    <v>       0.01000000       0.00000000      22.84763660 </v>
   </varray>
   <i name="volume">    263.54748209 </i>
   <varray name="rec_basis" >
    <v>       0.35014563       0.00000000      -0.00015325 </v>
    <v>       0.00000000       0.24759035       0.00000000 </v>
    <v>      -0.00000000      -0.00000000       0.04376820 </v>
   </varray>
  </crystal>
  <varray name="positions" >
   <v>       0.75000000       0.00000000       0.09375000 </v>
   <v>       0.25000000       0.50000000       0.03125000 </v>
   <v>       0.75000000       0.00000000       0.21875000 </v>
   <v>       0.25000000       0.50000000       0.15625000 </v>
   <v>       0.75000000       0.00000000       0.34375000 </v>
   <v>       0.25000000       0.50000000       0.28125000 </v>
   <v>       0.75000000       0.00000000       0.46875000 </v>
   <v>       0.25000000       0.50000000       0.40625000 </v>
  </varray>
 </structure>
</modeling>
