ITEM: TIMESTEP
0
ITEM: NUMBER OF ATOMS
4
ITEM: BOX BOUNDS xy xz yz pp pp pp
0.0000000000000000e+00 4.0499988870000001e+00 0.0000000000000000e+00
0.0000000000000000e+00 4.0499988870000001e+00 0.0000000000000000e+00
0.0000000000000000e+00 4.0092943475000000e+00 0.0000000000000000e+00
ITEM: ATOMS id type xs ys zs fx fy fz
1 1 0 0 0 0 9.08561e-17 7.81839e-10
2 1 0 0.5 0.5 0 -8.73867e-17 -7.81839e-10
4 1 0.5 0 0.5 0 -8.73867e-17 -7.81839e-10
3 1 0.5 0.5 0 0 9.08561e-17 7.81839e-10
ITEM: TIMESTEP
1
ITEM: NUMBER OF ATOMS
4
ITEM: BOX BOUNDS xy xz yz pp pp pp
0.0000000000000000e+00 4.0499988870000001e+00 0.0000000000000000e+00
0.0000000000000000e+00 4.0499988870000001e+00 0.0000000000000000e+00
0.0000000000000000e+00 4.0092943475000000e+00 0.0000000000000000e+00
ITEM: ATOMS id type xs ys zs fx fy fz
1 1 0 7.17335e-19 6.23551e-12 -1.31839e-16 1.18829e-16 1.77844e-14
2 1 0 0.5 0.5 4.51028e-17 -1.15793e-16 -1.77913e-14
4 1 0.5 0 0.5 8.32667e-17 -1.15359e-16 -1.77913e-14
3 1 0.5 0.5 6.23551e-12 0 1.19262e-16 1.77844e-14
