ITEM: TIMESTEP
0
ITEM: NUMBER OF ATOMS
4
ITEM: BOX BOUNDS xy xz yz pp pp pp
-4.0320000000000002e-02 4.0319999997000000e+00 0.0000000000000000e+00
0.0000000000000000e+00 4.0319999997000000e+00 -4.0320000000000002e-02
0.0000000000000000e+00 4.0317983946000000e+00 0.0000000000000000e+00
ITEM: ATOMS id type xs ys zs fx fy fz
1 1 0 0 0 -2.3142e-10 -2.31339e-10 -8.60422e-12
4 1 0.5 0 0.5 2.3142e-10 -2.31339e-10 8.60426e-12
2 1 2.60209e-18 0.5 0.5 -2.3142e-10 2.31339e-10 -8.60426e-12
3 1 0.5 0.5 0 2.3142e-10 2.31339e-10 8.60425e-12
ITEM: TIMESTEP
1
ITEM: NUMBER OF ATOMS
4
ITEM: BOX BOUNDS xy xz yz pp pp pp
-4.0320000000000002e-02 4.0319999997000000e+00 0.0000000000000000e+00
0.0000000000000000e+00 4.0319999997000000e+00 -4.0320000000000002e-02
0.0000000000000000e+00 4.0317983946000000e+00 0.0000000000000000e+00
ITEM: ATOMS id type xs ys zs fx fy fz
3 1 0.5 0.5 2.30349e-13 -1.19085e-13 2.76874e-13 -4.11242e-12
4 1 0.5 1 0.5 -1.18433e-13 -2.7628e-13 -4.10995e-12
2 1 1 0.5 0.5 1.19089e-13 2.76325e-13 4.11188e-12
1 1 1 1 1 1.18449e-13 -2.76893e-13 4.11052e-12
