
4 atoms
1 atom types
   0.0000000000    4.2242842780 xlo xhi
   0.0000000000    4.2242842780 ylo yhi
   0.0000000000    4.2242842780 zlo zhi
   0.0000000000   -0.0000000000   -0.0000000000 xy xz yz

Atoms # atomic

     1      1    0.0000000000    0.0000000000    0.0000000000
     2      1    0.0000000000    2.1121421390    2.1121421390
     3      1    2.1121421390    2.1121421390    0.0000000000
     4      1    2.1121421390    0.0000000000    2.1121421390
