ITEM: TIMESTEP
0
ITEM: NUMBER OF ATOMS
4
ITEM: BOX BOUNDS xy xz yz pp pp pp
0.0000000000000000e+00 4.2242842779999998e+00 0.0000000000000000e+00
0.0000000000000000e+00 4.2242842779999998e+00 -0.0000000000000000e+00
0.0000000000000000e+00 4.2242842779999998e+00 -0.0000000000000000e+00
ITEM: ATOMS id type xs ys zs fx fy fz
1 1 0 0 0 2.77556e-17 6.93889e-18 -1.66533e-16
4 1 0.5 0 0.5 -6.93889e-18 3.1225e-17 -1.249e-16
3 1 0.5 0.5 0 -6.93889e-18 3.46945e-17 -2.70617e-16
2 1 0 0.5 0.5 0 3.46945e-17 -1.249e-16
ITEM: TIMESTEP
1
ITEM: NUMBER OF ATOMS
4
ITEM: BOX BOUNDS xy xz yz pp pp pp
0.0000000000000000e+00 4.2242842779999998e+00 0.0000000000000000e+00
0.0000000000000000e+00 4.2242842779999998e+00 -0.0000000000000000e+00
0.0000000000000000e+00 4.2242842779999998e+00 -0.0000000000000000e+00
ITEM: ATOMS id type xs ys zs fx fy fz
1 1 0 0 0 2.77556e-17 6.93889e-18 -1.66533e-16
4 1 0.5 0 0.5 -6.93889e-18 3.1225e-17 -1.249e-16
3 1 0.5 0.5 0 -6.93889e-18 3.46945e-17 -2.70617e-16
2 1 0 0.5 0.5 0 3.46945e-17 -1.249e-16
