
12 atoms
1 atom types
   0.0000000000    4.0499988870 xlo xhi
   0.0000000000    4.5280364100 ylo yhi
   0.0000000000   25.3562088457 zlo zhi
   2.0249994435    2.0349677477    0.9055788873 xy xz yz

Atoms # atomic

     1      1    4.0594331749    1.5847858700   23.9978405147
     2      1    6.0837205966    2.4903951802   22.1866827400
     3      1    6.0847886292    3.3959994199   24.9034194021
     4      1    4.0590771640    4.3016087301   23.0922616274
     5      1    4.0580091314    3.3960044904   20.3755249653
     6      1    6.0822965532    4.3016138006   18.5643671906
     7      1    6.0833645857    5.2072180403   21.2811038527
     8      1    2.0326536771    1.5847909405   19.4699460780
     9      1    2.0315856445    0.6791867008   16.7532094159
    10      1    4.0558730662    1.5847960109   14.9420516412
    11      1    4.0569410988    2.4904002507   17.6587883033
    12      1    6.0812285206    3.3960095609   15.8476305286
