ITEM: TIMESTEP
0
ITEM: NUMBER OF ATOMS
12
ITEM: BOX BOUNDS xy xz yz pp pp pp
0.0000000000000000e+00 8.1099660781999994e+00 2.0249994435000001e+00
0.0000000000000000e+00 5.4336152973000003e+00 2.0349677477000001e+00
0.0000000000000000e+00 2.5356208845699999e+01 9.0557888730000002e-01
ITEM: ATOMS id type xs ys zs fx fy fz
9 1 0.160714 0.0178571 0.660714 -0.000859063 -0.444705 -0.260631
10 1 0.589286 0.232143 0.589286 0.001867 -0.154599 -0.460846
11 1 0.446429 0.410714 0.696429 -0.000480416 0.0912041 0.762555
8 1 0.0178571 0.196429 0.767857 7.45484e-05 0.0631728 0.189513
1 1 0.446429 0.160714 0.946429 -0.00135644 -0.384056 0.635243
2 1 0.875 0.375 0.875 0.000480416 -0.0912041 -0.762555
12 1 0.875 0.625 0.625 0.00135644 0.384056 -0.635243
5 1 0.303571 0.589286 0.803571 -7.45491e-05 -0.0631728 -0.189513
6 1 0.732143 0.803571 0.732143 8.5029e-05 0.0608339 0.404196
7 1 0.589286 0.982143 0.839286 -8.50283e-05 -0.0608339 -0.404196
3 1 0.732143 0.553571 0.982143 -0.001867 0.154599 0.460846
4 1 0.160714 0.767857 0.910714 0.000859062 0.444705 0.260631
