 running   14 mpi-ranks, with    2 threads/rank, on    1 nodes
 distrk:  each k-point on   14 cores,    1 groups
 distr:  one band on    1 cores,   14 groups
 vasp.6.4.2 20Jul23 (build Apr 22 2024 22:35:45) complex                         
 POSCAR found type information on POSCAR Al
 POSCAR found :  1 types and       4 ions
 scaLAPACK will be used
 -----------------------------------------------------------------------------
|                                                                             |
|               ----> ADVICE to this user running VASP <----                  |
|                                                                             |
|     You have a (more or less) 'small supercell' and for smaller cells       |
|     it is recommended to use the reciprocal-space projection scheme!        |
|     The real-space optimization is not efficient for small cells and it     |
|     is also less accurate ...                                               |
|     Therefore, set LREAL=.FALSE. in the INCAR file.                         |
|                                                                             |
 -----------------------------------------------------------------------------

 LDA part: xc-table for Pade appr. of Perdew
 POSCAR, INCAR and KPOINTS ok, starting setup
 FFT: planning ... GRIDC
 FFT: planning ... GRID_SOFT
 FFT: planning ... GRID
 WAVECAR not read
 entering main loop
       N       E                     dE             d eps       ncg     rms          rms(c)
DAV:   1    -0.241047539840E+01   -0.24105E+01   -0.38688E+03 31024   0.523E+02
DAV:   2    -0.150016410712E+02   -0.12591E+02   -0.12261E+02 45248   0.479E+01
DAV:   3    -0.150737743244E+02   -0.72133E-01   -0.71854E-01 40376   0.486E+00
DAV:   4    -0.150739395386E+02   -0.16521E-03   -0.16521E-03 50708   0.230E-01
DAV:   5    -0.150739396477E+02   -0.10905E-06   -0.10912E-06 41300   0.421E-03    0.261E+00
RMM:   6    -0.150218635602E+02    0.52076E-01   -0.53734E-03 30800   0.426E-01    0.153E+00
RMM:   7    -0.149837680616E+02    0.38095E-01   -0.16428E-02 30800   0.713E-01    0.225E-01
RMM:   8    -0.149837383422E+02    0.29719E-04   -0.58020E-04 30800   0.160E-01    0.279E-02
RMM:   9    -0.149837440461E+02   -0.57039E-05   -0.98939E-05 30800   0.690E-02    0.232E-02
RMM:  10    -0.149837450203E+02   -0.97417E-06   -0.22199E-05 30800   0.332E-02    0.221E-02
RMM:  11    -0.149837405935E+02    0.44268E-05   -0.43784E-06 30312   0.128E-02    0.535E-03
RMM:  12    -0.149837404958E+02    0.97762E-07   -0.11726E-06 22890   0.812E-03
   1 F= -.14983740E+02 E0= -.14984279E+02  d E =-.149837E+02
 curvature:   0.00 expect dE= 0.000E+00 dE for cont linesearch  0.000E+00
 trial: gam= 0.00000 g(F)=  0.578E-62 g(S)=  0.000E+00 ort = 0.000E+00 (trialstep = 0.100E+01)
 search vector abs. value=  0.100E-09
 reached required accuracy - stopping structural energy minimisation
