ITEM: TIMESTEP
0
ITEM: NUMBER OF ATOMS
4
ITEM: BOX BOUNDS xy xz yz pp pp pp
0.0000000000000000e+00 4.0092943475000000e+00 0.0000000000000000e+00
0.0000000000000000e+00 4.0499988870000001e+00 0.0000000000000000e+00
0.0000000000000000e+00 4.0499988870000001e+00 0.0000000000000000e+00
ITEM: ATOMS id type xs ys zs fx fy fz
1 1 0 0 0 7.81838e-10 2.77556e-17 -1.66533e-16
4 1 0.5 0 0.5 -7.81838e-10 -2.77556e-17 2.22045e-16
3 1 0.5 0.5 0 -7.81838e-10 -2.77556e-17 4.16334e-17
2 1 0 0.5 0.5 7.81838e-10 2.77556e-17 -9.71445e-17
ITEM: TIMESTEP
1
ITEM: NUMBER OF ATOMS
4
ITEM: BOX BOUNDS xy xz yz pp pp pp
0.0000000000000000e+00 4.0092943475000000e+00 0.0000000000000000e+00
0.0000000000000000e+00 4.0499988870000001e+00 0.0000000000000000e+00
0.0000000000000000e+00 4.0499988870000001e+00 0.0000000000000000e+00
ITEM: ATOMS id type xs ys zs fx fy fz
1 1 6.23551e-12 2.19138e-19 0 1.58085e-14 -2.48303e-16 2.63678e-16
4 1 0.5 0 0.5 -1.61116e-14 -4.38885e-16 -2.498e-16
3 1 0.5 0.5 3.28707e-19 -1.57855e-14 3.07046e-16 -2.25514e-16
2 1 6.23551e-12 0.5 0.5 1.60982e-14 3.83374e-16 2.08167e-16
