
12 atoms
1 atom types
   0.0000000000    4.0369359481 xlo xhi
   0.0000000000    4.5134316004 ylo yhi
   0.0000000000   25.2744219118 zlo zhi
   2.0184679741    2.0284362783    0.9026579254 xy xz yz

Atoms # atomic

     1      1    4.0463702360    1.5796741866   23.9204350236
     2      1    6.0641261883    2.4823625349   22.1151191728
     3      1    6.0651942209    3.3850458127   24.8230929491
     4      1    4.0460142251    4.2877341610   23.0177770982
     5      1    4.0449461925    3.3850508832   20.3098033219
     6      1    6.0627021449    4.2877392314   18.5044874711
     7      1    6.0637701774    5.1904225093   21.2124612474
     8      1    2.0261222076    1.5796792572   19.4071453965
     9      1    2.0250541750    0.6769959793   16.6991716203
    10      1    4.0428101273    1.5796843276   14.8938557694
    11      1    4.0438781599    2.4823676054   17.6018295457
    12      1    6.0616341123    3.3850559537   15.7965136949
