ITEM: TIMESTEP
0
ITEM: NUMBER OF ATOMS
12
ITEM: BOX BOUNDS xy xz yz pp pp pp
0.0000000000000000e+00 8.0838402004999992e+00 2.0184679741000000e+00
0.0000000000000000e+00 5.4160895257999995e+00 2.0284362783000001e+00
0.0000000000000000e+00 2.5274421911800001e+01 9.0265792540000001e-01
ITEM: ATOMS id type xs ys zs fx fy fz
9 1 0.160714 0.0178571 0.660714 -0.000276501 -0.0302238 -0.167057
10 1 0.589286 0.232143 0.589286 0.00116003 -0.0424127 0.307769
11 1 0.446429 0.410714 0.696429 -6.19852e-05 0.0898858 0.03167
8 1 0.0178571 0.196429 0.767857 1.91884e-05 -0.000245477 -0.0160334
1 1 0.446429 0.160714 0.946429 -0.000667169 -0.00776895 0.28183
2 1 0.875 0.375 0.875 6.19853e-05 -0.0898858 -0.03167
12 1 0.875 0.625 0.625 0.000667168 0.00776895 -0.28183
5 1 0.303571 0.589286 0.803571 -1.91884e-05 0.000245477 0.0160334
6 1 0.732143 0.803571 0.732143 2.34691e-05 0.0325642 -0.00930173
7 1 0.589286 0.982143 0.839286 -2.34691e-05 -0.0325642 0.00930173
3 1 0.732143 0.553571 0.982143 -0.00116003 0.0424127 -0.307769
4 1 0.160714 0.767857 0.910714 0.000276501 0.0302238 0.167057
