ITEM: TIMESTEP
0
ITEM: NUMBER OF ATOMS
4
ITEM: BOX BOUNDS xy xz yz pp pp pp
0.0000000000000000e+00 4.0369359481000000e+00 0.0000000000000000e+00
0.0000000000000000e+00 4.0771054543999998e+00 0.0000000000000000e+00
0.0000000000000000e+00 4.0369359481000000e+00 0.0000000000000000e+00
ITEM: ATOMS id type xs ys zs fx fy fz
1 1 0 0 0 2.30419e-10 -1.55041e-17 2.30419e-10
4 1 0.5 0 0.5 -2.30419e-10 -2.95987e-17 -2.30419e-10
3 1 0.5 0.5 0 -2.30419e-10 1.56125e-17 2.30419e-10
2 1 0 0.5 0.5 2.30419e-10 -1.56125e-17 -2.30419e-10
ITEM: TIMESTEP
1
ITEM: NUMBER OF ATOMS
4
ITEM: BOX BOUNDS xy xz yz pp pp pp
0.0000000000000000e+00 4.0369359481000000e+00 0.0000000000000000e+00
0.0000000000000000e+00 4.0771054543999998e+00 0.0000000000000000e+00
0.0000000000000000e+00 4.0369359481000000e+00 0.0000000000000000e+00
ITEM: ATOMS id type xs ys zs fx fy fz
1 1 6.19287e-12 0 6.19287e-12 -2.23432e-15 2.77624e-17 -9.97549e-16
4 1 0.5 0 0.5 6.66134e-16 1.20346e-17 1.01704e-15
3 1 0.5 0.5 6.19287e-12 2.27596e-15 3.46945e-17 -1.00645e-15
2 1 6.19287e-12 0.5 0.5 -7.63278e-16 -1.37694e-17 1.03081e-15
