ITEM: TIMESTEP
0
ITEM: NUMBER OF ATOMS
4
ITEM: BOX BOUNDS xy xz yz pp pp pp
0.0000000000000000e+00 4.1176746671000002e+00 0.0000000000000000e+00
0.0000000000000000e+00 4.0369359481000000e+00 8.0738719000000000e-02
0.0000000000000000e+00 4.0361284802000004e+00 0.0000000000000000e+00
ITEM: ATOMS id type xs ys zs fx fy fz
1 1 0 0 0 2.37119e-10 2.36786e-10 -1.745e-11
4 1 0.5 0 0.5 -2.37119e-10 2.36786e-10 1.745e-11
3 1 0.5 0.5 0 -2.37119e-10 -2.36786e-10 1.745e-11
2 1 0 0.5 0.5 2.37119e-10 -2.36786e-10 -1.74499e-11
ITEM: TIMESTEP
1
ITEM: NUMBER OF ATOMS
4
ITEM: BOX BOUNDS xy xz yz pp pp pp
0.0000000000000000e+00 4.1176746671000002e+00 0.0000000000000000e+00
0.0000000000000000e+00 4.0369359481000000e+00 8.0738719000000000e-02
0.0000000000000000e+00 4.0361284802000004e+00 0.0000000000000000e+00
ITEM: ATOMS id type xs ys zs fx fy fz
4 1 0.5 6.16479e-12 0.5 5.42524e-13 1.07256e-12 -7.26505e-12
1 1 6.18256e-12 6.16478e-12 1 -5.40956e-13 1.07301e-12 7.26548e-12
3 1 0.5 0.5 4.54407e-13 5.39097e-13 -1.07273e-12 -7.26497e-12
2 1 6.18255e-12 0.5 0.5 -5.40665e-13 -1.07285e-12 7.26465e-12
