
4 atoms
1 atom types
   0.0000000000    4.1621534252 xlo xhi
   0.0000000000    4.1621534252 ylo yhi
   0.0000000000    4.1621534252 zlo zhi
   0.0000000000   -0.0000000000   -0.0000000000 xy xz yz

Atoms # atomic

     1      1    0.0000000000    0.0000000000    0.0000000000
     2      1    0.0000000000    2.0810767126    2.0810767126
     3      1    2.0810767126    2.0810767126    0.0000000000
     4      1    2.0810767126    0.0000000000    2.0810767126
