<?xml version="1.0" encoding="ISO-8859-1"?>
<modeling>
 <generator>
  <i name="program" type="string">vasp </i>
  <i name="version" type="string">6.4.2  </i>
  <i name="subversion" type="string">20Jul23 (build Apr 22 2024 22:35:45) complex                          parallel </i>
  <i name="platform" type="string">LinuxGNU </i>
  <i name="date" type="string">2024 05 26 </i>
  <i name="time" type="string">15:41:25 </i>
 </generator>
 <incar>
  <i type="string" name="SYSTEM">Al fcc relaxation</i>
  <i type="string" name="PREC">Accurate</i>
  <i type="string" name="ALGO">Fast</i>
  <i type="int" name="NELM">    60</i>
  <i type="int" name="NELMIN">     4</i>
  <i type="int" name="IBRION">     2</i>
  <i name="EDIFF">      0.00000100</i>
  <i type="int" name="NSW">   100</i>
  <i type="int" name="ISIF">     4</i>
  <i name="ENCUT">    400.00000000</i>
  <i type="string" name="LREAL">Auto</i>
  <i type="int" name="ISMEAR">     1</i>
  <i name="SIGMA">      0.20000000</i>
  <i name="KSPACING">      0.08000000</i>
  <i type="logical" name="LWAVE"> F  </i>
  <i type="logical" name="LCHARG"> F  </i>
 </incar>
 <primitive_cell>
  <structure name="primitive_cell" >
   <crystal>
    <varray name="basis" >
     <v>       1.83480558      -1.83480558       0.00000000 </v>
     <v>       1.83480558       0.00000000       1.83480558 </v>
     <v>       0.00000000      -1.83480558       1.83480558 </v>
    </varray>
    <i name="volume">     12.35378822 </i>
    <varray name="rec_basis" >
     <v>       0.27250844      -0.27250844      -0.27250844 </v>
     <v>       0.27250844       0.27250844       0.27250844 </v>
     <v>      -0.27250844      -0.27250844       0.27250844 </v>
    </varray>
   </crystal>
   <varray name="positions" >
    <v>       0.00000000       0.00000000       0.00000000 </v>
   </varray>
  </structure>
  <varray name="primitive_index" >
   <v type="int" >        1 </v>
  </varray>
 </primitive_cell>
 <kpoints>
  <generation param="Monkhorst-Pack">
   <v type="int" name="divisions">      22       22       22 </v>
   <v name="usershift">      0.00000000       0.00000000       0.00000000 </v>
   <v name="genvec1">      0.04545455       0.00000000       0.00000000 </v>
   <v name="genvec2">      0.00000000       0.04545455       0.00000000 </v>
   <v name="genvec3">     -0.00000000      -0.00000000       0.04545455 </v>
   <v name="shift">      0.50000000       0.50000000       0.50000000 </v>
  </generation>
  <varray name="kpointlist" >
   <v>       0.02272727       0.02272727       0.02272727 </v>
   <v>       0.06818182       0.02272727       0.02272727 </v>
   <v>       0.11363636       0.02272727       0.02272727 </v>
   <v>       0.15909091       0.02272727       0.02272727 </v>
   <v>       0.20454545       0.02272727       0.02272727 </v>
   <v>       0.25000000       0.02272727       0.02272727 </v>
   <v>       0.29545455       0.02272727       0.02272727 </v>
   <v>       0.34090909       0.02272727       0.02272727 </v>
   <v>       0.38636364       0.02272727       0.02272727 </v>
   <v>       0.43181818       0.02272727       0.02272727 </v>
   <v>       0.47727273       0.02272727       0.02272727 </v>
   <v>       0.06818182       0.06818182       0.02272727 </v>
   <v>       0.11363636       0.06818182       0.02272727 </v>
   <v>       0.15909091       0.06818182       0.02272727 </v>
   <v>       0.20454545       0.06818182       0.02272727 </v>
   <v>       0.25000000       0.06818182       0.02272727 </v>
   <v>       0.29545455       0.06818182       0.02272727 </v>
   <v>       0.34090909       0.06818182       0.02272727 </v>
   <v>       0.38636364       0.06818182       0.02272727 </v>
   <v>       0.43181818       0.06818182       0.02272727 </v>
   <v>       0.47727273       0.06818182       0.02272727 </v>
   <v>       0.11363636       0.11363636       0.02272727 </v>
   <v>       0.15909091       0.11363636       0.02272727 </v>
   <v>       0.20454545       0.11363636       0.02272727 </v>
   <v>       0.25000000       0.11363636       0.02272727 </v>
   <v>       0.29545455       0.11363636       0.02272727 </v>
   <v>       0.34090909       0.11363636       0.02272727 </v>
   <v>       0.38636364       0.11363636       0.02272727 </v>
   <v>       0.43181818       0.11363636       0.02272727 </v>
   <v>       0.47727273       0.11363636       0.02272727 </v>
   <v>       0.15909091       0.15909091       0.02272727 </v>
   <v>       0.20454545       0.15909091       0.02272727 </v>
   <v>       0.25000000       0.15909091       0.02272727 </v>
   <v>       0.29545455       0.15909091       0.02272727 </v>
   <v>       0.34090909       0.15909091       0.02272727 </v>
   <v>       0.38636364       0.15909091       0.02272727 </v>
   <v>       0.43181818       0.15909091       0.02272727 </v>
   <v>       0.47727273       0.15909091       0.02272727 </v>
   <v>       0.20454545       0.20454545       0.02272727 </v>
   <v>       0.25000000       0.20454545       0.02272727 </v>
   <v>       0.29545455       0.20454545       0.02272727 </v>
   <v>       0.34090909       0.20454545       0.02272727 </v>
   <v>       0.38636364       0.20454545       0.02272727 </v>
   <v>       0.43181818       0.20454545       0.02272727 </v>
   <v>       0.47727273       0.20454545       0.02272727 </v>
   <v>       0.25000000       0.25000000       0.02272727 </v>
   <v>       0.29545455       0.25000000       0.02272727 </v>
   <v>       0.34090909       0.25000000       0.02272727 </v>
   <v>       0.38636364       0.25000000       0.02272727 </v>
   <v>       0.43181818       0.25000000       0.02272727 </v>
   <v>       0.47727273       0.25000000       0.02272727 </v>
   <v>       0.29545455       0.29545455       0.02272727 </v>
   <v>       0.34090909       0.29545455       0.02272727 </v>
   <v>       0.38636364       0.29545455       0.02272727 </v>
   <v>       0.43181818       0.29545455       0.02272727 </v>
   <v>       0.47727273       0.29545455       0.02272727 </v>
   <v>       0.34090909       0.34090909       0.02272727 </v>
   <v>       0.38636364       0.34090909       0.02272727 </v>
   <v>       0.43181818       0.34090909       0.02272727 </v>
   <v>       0.47727273       0.34090909       0.02272727 </v>
   <v>       0.38636364       0.38636364       0.02272727 </v>
   <v>       0.43181818       0.38636364       0.02272727 </v>
   <v>       0.47727273       0.38636364       0.02272727 </v>
   <v>       0.43181818       0.43181818       0.02272727 </v>
   <v>       0.47727273       0.43181818       0.02272727 </v>
   <v>       0.47727273       0.47727273       0.02272727 </v>
   <v>       0.06818182       0.06818182       0.06818182 </v>
   <v>       0.11363636       0.06818182       0.06818182 </v>
   <v>       0.15909091       0.06818182       0.06818182 </v>
   <v>       0.20454545       0.06818182       0.06818182 </v>
   <v>       0.25000000       0.06818182       0.06818182 </v>
   <v>       0.29545455       0.06818182       0.06818182 </v>
   <v>       0.34090909       0.06818182       0.06818182 </v>
   <v>       0.38636364       0.06818182       0.06818182 </v>
   <v>       0.43181818       0.06818182       0.06818182 </v>
   <v>       0.47727273       0.06818182       0.06818182 </v>
   <v>       0.11363636       0.11363636       0.06818182 </v>
   <v>       0.15909091       0.11363636       0.06818182 </v>
   <v>       0.20454545       0.11363636       0.06818182 </v>
   <v>       0.25000000       0.11363636       0.06818182 </v>
   <v>       0.29545455       0.11363636       0.06818182 </v>
   <v>       0.34090909       0.11363636       0.06818182 </v>
   <v>       0.38636364       0.11363636       0.06818182 </v>
   <v>       0.43181818       0.11363636       0.06818182 </v>
   <v>       0.47727273       0.11363636       0.06818182 </v>
   <v>       0.15909091       0.15909091       0.06818182 </v>
   <v>       0.20454545       0.15909091       0.06818182 </v>
   <v>       0.25000000       0.15909091       0.06818182 </v>
   <v>       0.29545455       0.15909091       0.06818182 </v>
   <v>       0.34090909       0.15909091       0.06818182 </v>
   <v>       0.38636364       0.15909091       0.06818182 </v>
   <v>       0.43181818       0.15909091       0.06818182 </v>
   <v>       0.47727273       0.15909091       0.06818182 </v>
   <v>       0.20454545       0.20454545       0.06818182 </v>
   <v>       0.25000000       0.20454545       0.06818182 </v>
   <v>       0.29545455       0.20454545       0.06818182 </v>
   <v>       0.34090909       0.20454545       0.06818182 </v>
   <v>       0.38636364       0.20454545       0.06818182 </v>
   <v>       0.43181818       0.20454545       0.06818182 </v>
   <v>       0.47727273       0.20454545       0.06818182 </v>
   <v>       0.25000000       0.25000000       0.06818182 </v>
   <v>       0.29545455       0.25000000       0.06818182 </v>
   <v>       0.34090909       0.25000000       0.06818182 </v>
   <v>       0.38636364       0.25000000       0.06818182 </v>
   <v>       0.43181818       0.25000000       0.06818182 </v>
   <v>       0.47727273       0.25000000       0.06818182 </v>
   <v>       0.29545455       0.29545455       0.06818182 </v>
   <v>       0.34090909       0.29545455       0.06818182 </v>
   <v>       0.38636364       0.29545455       0.06818182 </v>
   <v>       0.43181818       0.29545455       0.06818182 </v>
   <v>       0.47727273       0.29545455       0.06818182 </v>
   <v>       0.34090909       0.34090909       0.06818182 </v>
   <v>       0.38636364       0.34090909       0.06818182 </v>
   <v>       0.43181818       0.34090909       0.06818182 </v>
   <v>       0.47727273       0.34090909       0.06818182 </v>
   <v>       0.38636364       0.38636364       0.06818182 </v>
   <v>       0.43181818       0.38636364       0.06818182 </v>
   <v>       0.47727273       0.38636364       0.06818182 </v>
   <v>       0.43181818       0.43181818       0.06818182 </v>
   <v>       0.47727273       0.43181818       0.06818182 </v>
   <v>       0.47727273       0.47727273       0.06818182 </v>
   <v>       0.11363636       0.11363636       0.11363636 </v>
   <v>       0.15909091       0.11363636       0.11363636 </v>
   <v>       0.20454545       0.11363636       0.11363636 </v>
   <v>       0.25000000       0.11363636       0.11363636 </v>
   <v>       0.29545455       0.11363636       0.11363636 </v>
   <v>       0.34090909       0.11363636       0.11363636 </v>
   <v>       0.38636364       0.11363636       0.11363636 </v>
   <v>       0.43181818       0.11363636       0.11363636 </v>
   <v>       0.47727273       0.11363636       0.11363636 </v>
   <v>       0.15909091       0.15909091       0.11363636 </v>
   <v>       0.20454545       0.15909091       0.11363636 </v>
   <v>       0.25000000       0.15909091       0.11363636 </v>
   <v>       0.29545455       0.15909091       0.11363636 </v>
   <v>       0.34090909       0.15909091       0.11363636 </v>
   <v>       0.38636364       0.15909091       0.11363636 </v>
   <v>       0.43181818       0.15909091       0.11363636 </v>
   <v>       0.47727273       0.15909091       0.11363636 </v>
   <v>       0.20454545       0.20454545       0.11363636 </v>
   <v>       0.25000000       0.20454545       0.11363636 </v>
   <v>       0.29545455       0.20454545       0.11363636 </v>
   <v>       0.34090909       0.20454545       0.11363636 </v>
   <v>       0.38636364       0.20454545       0.11363636 </v>
   <v>       0.43181818       0.20454545       0.11363636 </v>
   <v>       0.47727273       0.20454545       0.11363636 </v>
   <v>       0.25000000       0.25000000       0.11363636 </v>
   <v>       0.29545455       0.25000000       0.11363636 </v>
   <v>       0.34090909       0.25000000       0.11363636 </v>
   <v>       0.38636364       0.25000000       0.11363636 </v>
   <v>       0.43181818       0.25000000       0.11363636 </v>
   <v>       0.47727273       0.25000000       0.11363636 </v>
   <v>       0.29545455       0.29545455       0.11363636 </v>
   <v>       0.34090909       0.29545455       0.11363636 </v>
   <v>       0.38636364       0.29545455       0.11363636 </v>
   <v>       0.43181818       0.29545455       0.11363636 </v>
   <v>       0.47727273       0.29545455       0.11363636 </v>
   <v>       0.34090909       0.34090909       0.11363636 </v>
   <v>       0.38636364       0.34090909       0.11363636 </v>
   <v>       0.43181818       0.34090909       0.11363636 </v>
   <v>       0.47727273       0.34090909       0.11363636 </v>
   <v>       0.38636364       0.38636364       0.11363636 </v>
   <v>       0.43181818       0.38636364       0.11363636 </v>
   <v>       0.47727273       0.38636364       0.11363636 </v>
   <v>       0.43181818       0.43181818       0.11363636 </v>
   <v>       0.47727273       0.43181818       0.11363636 </v>
   <v>       0.47727273       0.47727273       0.11363636 </v>
   <v>       0.15909091       0.15909091       0.15909091 </v>
   <v>       0.20454545       0.15909091       0.15909091 </v>
   <v>       0.25000000       0.15909091       0.15909091 </v>
   <v>       0.29545455       0.15909091       0.15909091 </v>
   <v>       0.34090909       0.15909091       0.15909091 </v>
   <v>       0.38636364       0.15909091       0.15909091 </v>
   <v>       0.43181818       0.15909091       0.15909091 </v>
   <v>       0.47727273       0.15909091       0.15909091 </v>
   <v>       0.20454545       0.20454545       0.15909091 </v>
   <v>       0.25000000       0.20454545       0.15909091 </v>
   <v>       0.29545455       0.20454545       0.15909091 </v>
   <v>       0.34090909       0.20454545       0.15909091 </v>
   <v>       0.38636364       0.20454545       0.15909091 </v>
   <v>       0.43181818       0.20454545       0.15909091 </v>
   <v>       0.47727273       0.20454545       0.15909091 </v>
   <v>       0.25000000       0.25000000       0.15909091 </v>
   <v>       0.29545455       0.25000000       0.15909091 </v>
   <v>       0.34090909       0.25000000       0.15909091 </v>
   <v>       0.38636364       0.25000000       0.15909091 </v>
   <v>       0.43181818       0.25000000       0.15909091 </v>
   <v>       0.47727273       0.25000000       0.15909091 </v>
   <v>       0.29545455       0.29545455       0.15909091 </v>
   <v>       0.34090909       0.29545455       0.15909091 </v>
   <v>       0.38636364       0.29545455       0.15909091 </v>
   <v>       0.43181818       0.29545455       0.15909091 </v>
   <v>       0.47727273       0.29545455       0.15909091 </v>
   <v>       0.34090909       0.34090909       0.15909091 </v>
   <v>       0.38636364       0.34090909       0.15909091 </v>
   <v>       0.43181818       0.34090909       0.15909091 </v>
   <v>       0.47727273       0.34090909       0.15909091 </v>
   <v>       0.38636364       0.38636364       0.15909091 </v>
   <v>       0.43181818       0.38636364       0.15909091 </v>
   <v>       0.47727273       0.38636364       0.15909091 </v>
   <v>       0.43181818       0.43181818       0.15909091 </v>
   <v>       0.47727273       0.43181818       0.15909091 </v>
   <v>       0.47727273       0.47727273       0.15909091 </v>
   <v>       0.20454545       0.20454545       0.20454545 </v>
   <v>       0.25000000       0.20454545       0.20454545 </v>
   <v>       0.29545455       0.20454545       0.20454545 </v>
   <v>       0.34090909       0.20454545       0.20454545 </v>
   <v>       0.38636364       0.20454545       0.20454545 </v>
   <v>       0.43181818       0.20454545       0.20454545 </v>
   <v>       0.47727273       0.20454545       0.20454545 </v>
   <v>       0.25000000       0.25000000       0.20454545 </v>
   <v>       0.29545455       0.25000000       0.20454545 </v>
   <v>       0.34090909       0.25000000       0.20454545 </v>
   <v>       0.38636364       0.25000000       0.20454545 </v>
   <v>       0.43181818       0.25000000       0.20454545 </v>
   <v>       0.47727273       0.25000000       0.20454545 </v>
   <v>       0.29545455       0.29545455       0.20454545 </v>
   <v>       0.34090909       0.29545455       0.20454545 </v>
   <v>       0.38636364       0.29545455       0.20454545 </v>
   <v>       0.43181818       0.29545455       0.20454545 </v>
   <v>       0.47727273       0.29545455       0.20454545 </v>
   <v>       0.34090909       0.34090909       0.20454545 </v>
   <v>       0.38636364       0.34090909       0.20454545 </v>
   <v>       0.43181818       0.34090909       0.20454545 </v>
   <v>       0.47727273       0.34090909       0.20454545 </v>
   <v>       0.38636364       0.38636364       0.20454545 </v>
   <v>       0.43181818       0.38636364       0.20454545 </v>
   <v>       0.47727273       0.38636364       0.20454545 </v>
   <v>       0.43181818       0.43181818       0.20454545 </v>
   <v>       0.47727273       0.43181818       0.20454545 </v>
   <v>       0.47727273       0.47727273       0.20454545 </v>
   <v>       0.25000000       0.25000000       0.25000000 </v>
   <v>       0.29545455       0.25000000       0.25000000 </v>
   <v>       0.34090909       0.25000000       0.25000000 </v>
   <v>       0.38636364       0.25000000       0.25000000 </v>
   <v>       0.43181818       0.25000000       0.25000000 </v>
   <v>       0.47727273       0.25000000       0.25000000 </v>
   <v>       0.29545455       0.29545455       0.25000000 </v>
   <v>       0.34090909       0.29545455       0.25000000 </v>
   <v>       0.38636364       0.29545455       0.25000000 </v>
   <v>       0.43181818       0.29545455       0.25000000 </v>
   <v>       0.47727273       0.29545455       0.25000000 </v>
   <v>       0.34090909       0.34090909       0.25000000 </v>
   <v>       0.38636364       0.34090909       0.25000000 </v>
   <v>       0.43181818       0.34090909       0.25000000 </v>
   <v>       0.47727273       0.34090909       0.25000000 </v>
   <v>       0.38636364       0.38636364       0.25000000 </v>
   <v>       0.43181818       0.38636364       0.25000000 </v>
   <v>       0.47727273       0.38636364       0.25000000 </v>
   <v>       0.43181818       0.43181818       0.25000000 </v>
   <v>       0.47727273       0.43181818       0.25000000 </v>
   <v>       0.47727273       0.47727273       0.25000000 </v>
   <v>       0.29545455       0.29545455       0.29545455 </v>
   <v>       0.34090909       0.29545455       0.29545455 </v>
   <v>       0.38636364       0.29545455       0.29545455 </v>
   <v>       0.43181818       0.29545455       0.29545455 </v>
   <v>       0.47727273       0.29545455       0.29545455 </v>
   <v>       0.34090909       0.34090909       0.29545455 </v>
   <v>       0.38636364       0.34090909       0.29545455 </v>
   <v>       0.43181818       0.34090909       0.29545455 </v>
   <v>       0.47727273       0.34090909       0.29545455 </v>
   <v>       0.38636364       0.38636364       0.29545455 </v>
   <v>       0.43181818       0.38636364       0.29545455 </v>
   <v>       0.47727273       0.38636364       0.29545455 </v>
   <v>       0.43181818       0.43181818       0.29545455 </v>
   <v>       0.47727273       0.43181818       0.29545455 </v>
   <v>       0.47727273       0.47727273       0.29545455 </v>
   <v>       0.34090909       0.34090909       0.34090909 </v>
   <v>       0.38636364       0.34090909       0.34090909 </v>
   <v>       0.43181818       0.34090909       0.34090909 </v>
   <v>       0.47727273       0.34090909       0.34090909 </v>
   <v>       0.38636364       0.38636364       0.34090909 </v>
   <v>       0.43181818       0.38636364       0.34090909 </v>
   <v>       0.47727273       0.38636364       0.34090909 </v>
   <v>       0.43181818       0.43181818       0.34090909 </v>
   <v>       0.47727273       0.43181818       0.34090909 </v>
   <v>       0.47727273       0.47727273       0.34090909 </v>
   <v>       0.38636364       0.38636364       0.38636364 </v>
   <v>       0.43181818       0.38636364       0.38636364 </v>
   <v>       0.47727273       0.38636364       0.38636364 </v>
   <v>       0.43181818       0.43181818       0.38636364 </v>
   <v>       0.47727273       0.43181818       0.38636364 </v>
   <v>       0.47727273       0.47727273       0.38636364 </v>
   <v>       0.43181818       0.43181818       0.43181818 </v>
   <v>       0.47727273       0.43181818       0.43181818 </v>
   <v>       0.47727273       0.47727273       0.43181818 </v>
   <v>       0.47727273       0.47727273       0.47727273 </v>
  </varray>
  <varray name="weights" >
   <v>       0.00075131 </v>
   <v>       0.00225394 </v>
   <v>       0.00225394 </v>
   <v>       0.00225394 </v>
   <v>       0.00225394 </v>
   <v>       0.00225394 </v>
   <v>       0.00225394 </v>
   <v>       0.00225394 </v>
   <v>       0.00225394 </v>
   <v>       0.00225394 </v>
   <v>       0.00225394 </v>
   <v>       0.00225394 </v>
   <v>       0.00450789 </v>
   <v>       0.00450789 </v>
   <v>       0.00450789 </v>
   <v>       0.00450789 </v>
   <v>       0.00450789 </v>
   <v>       0.00450789 </v>
   <v>       0.00450789 </v>
   <v>       0.00450789 </v>
   <v>       0.00450789 </v>
   <v>       0.00225394 </v>
   <v>       0.00450789 </v>
   <v>       0.00450789 </v>
   <v>       0.00450789 </v>
   <v>       0.00450789 </v>
   <v>       0.00450789 </v>
   <v>       0.00450789 </v>
   <v>       0.00450789 </v>
   <v>       0.00450789 </v>
   <v>       0.00225394 </v>
   <v>       0.00450789 </v>
   <v>       0.00450789 </v>
   <v>       0.00450789 </v>
   <v>       0.00450789 </v>
   <v>       0.00450789 </v>
   <v>       0.00450789 </v>
   <v>       0.00450789 </v>
   <v>       0.00225394 </v>
   <v>       0.00450789 </v>
   <v>       0.00450789 </v>
   <v>       0.00450789 </v>
   <v>       0.00450789 </v>
   <v>       0.00450789 </v>
   <v>       0.00450789 </v>
   <v>       0.00225394 </v>
   <v>       0.00450789 </v>
   <v>       0.00450789 </v>
   <v>       0.00450789 </v>
   <v>       0.00450789 </v>
   <v>       0.00450789 </v>
   <v>       0.00225394 </v>
   <v>       0.00450789 </v>
   <v>       0.00450789 </v>
   <v>       0.00450789 </v>
   <v>       0.00450789 </v>
   <v>       0.00225394 </v>
   <v>       0.00450789 </v>
   <v>       0.00450789 </v>
   <v>       0.00450789 </v>
   <v>       0.00225394 </v>
   <v>       0.00450789 </v>
   <v>       0.00450789 </v>
   <v>       0.00225394 </v>
   <v>       0.00450789 </v>
   <v>       0.00225394 </v>
   <v>       0.00075131 </v>
   <v>       0.00225394 </v>
   <v>       0.00225394 </v>
   <v>       0.00225394 </v>
   <v>       0.00225394 </v>
   <v>       0.00225394 </v>
   <v>       0.00225394 </v>
   <v>       0.00225394 </v>
   <v>       0.00225394 </v>
   <v>       0.00225394 </v>
   <v>       0.00225394 </v>
   <v>       0.00450789 </v>
   <v>       0.00450789 </v>
   <v>       0.00450789 </v>
   <v>       0.00450789 </v>
   <v>       0.00450789 </v>
   <v>       0.00450789 </v>
   <v>       0.00450789 </v>
   <v>       0.00450789 </v>
   <v>       0.00225394 </v>
   <v>       0.00450789 </v>
   <v>       0.00450789 </v>
   <v>       0.00450789 </v>
   <v>       0.00450789 </v>
   <v>       0.00450789 </v>
   <v>       0.00450789 </v>
   <v>       0.00450789 </v>
   <v>       0.00225394 </v>
   <v>       0.00450789 </v>
   <v>       0.00450789 </v>
   <v>       0.00450789 </v>
   <v>       0.00450789 </v>
   <v>       0.00450789 </v>
   <v>       0.00450789 </v>
   <v>       0.00225394 </v>
   <v>       0.00450789 </v>
   <v>       0.00450789 </v>
   <v>       0.00450789 </v>
   <v>       0.00450789 </v>
   <v>       0.00450789 </v>
   <v>       0.00225394 </v>
   <v>       0.00450789 </v>
   <v>       0.00450789 </v>
   <v>       0.00450789 </v>
   <v>       0.00450789 </v>
   <v>       0.00225394 </v>
   <v>       0.00450789 </v>
   <v>       0.00450789 </v>
   <v>       0.00450789 </v>
   <v>       0.00225394 </v>
   <v>       0.00450789 </v>
   <v>       0.00450789 </v>
   <v>       0.00225394 </v>
   <v>       0.00450789 </v>
   <v>       0.00225394 </v>
   <v>       0.00075131 </v>
   <v>       0.00225394 </v>
   <v>       0.00225394 </v>
   <v>       0.00225394 </v>
   <v>       0.00225394 </v>
   <v>       0.00225394 </v>
   <v>       0.00225394 </v>
   <v>       0.00225394 </v>
   <v>       0.00225394 </v>
   <v>       0.00225394 </v>
   <v>       0.00450789 </v>
   <v>       0.00450789 </v>
   <v>       0.00450789 </v>
   <v>       0.00450789 </v>
   <v>       0.00450789 </v>
   <v>       0.00450789 </v>
   <v>       0.00450789 </v>
   <v>       0.00225394 </v>
   <v>       0.00450789 </v>
   <v>       0.00450789 </v>
   <v>       0.00450789 </v>
   <v>       0.00450789 </v>
   <v>       0.00450789 </v>
   <v>       0.00450789 </v>
   <v>       0.00225394 </v>
   <v>       0.00450789 </v>
   <v>       0.00450789 </v>
   <v>       0.00450789 </v>
   <v>       0.00450789 </v>
   <v>       0.00450789 </v>
   <v>       0.00225394 </v>
   <v>       0.00450789 </v>
   <v>       0.00450789 </v>
   <v>       0.00450789 </v>
   <v>       0.00450789 </v>
   <v>       0.00225394 </v>
   <v>       0.00450789 </v>
   <v>       0.00450789 </v>
   <v>       0.00450789 </v>
   <v>       0.00225394 </v>
   <v>       0.00450789 </v>
   <v>       0.00450789 </v>
   <v>       0.00225394 </v>
   <v>       0.00450789 </v>
   <v>       0.00225394 </v>
   <v>       0.00075131 </v>
   <v>       0.00225394 </v>
   <v>       0.00225394 </v>
   <v>       0.00225394 </v>
   <v>       0.00225394 </v>
   <v>       0.00225394 </v>
   <v>       0.00225394 </v>
   <v>       0.00225394 </v>
   <v>       0.00225394 </v>
   <v>       0.00450789 </v>
   <v>       0.00450789 </v>
   <v>       0.00450789 </v>
   <v>       0.00450789 </v>
   <v>       0.00450789 </v>
   <v>       0.00450789 </v>
   <v>       0.00225394 </v>
   <v>       0.00450789 </v>
   <v>       0.00450789 </v>
   <v>       0.00450789 </v>
   <v>       0.00450789 </v>
   <v>       0.00450789 </v>
   <v>       0.00225394 </v>
   <v>       0.00450789 </v>
   <v>       0.00450789 </v>
   <v>       0.00450789 </v>
   <v>       0.00450789 </v>
   <v>       0.00225394 </v>
   <v>       0.00450789 </v>
   <v>       0.00450789 </v>
   <v>       0.00450789 </v>
   <v>       0.00225394 </v>
   <v>       0.00450789 </v>
   <v>       0.00450789 </v>
   <v>       0.00225394 </v>
   <v>       0.00450789 </v>
   <v>       0.00225394 </v>
   <v>       0.00075131 </v>
   <v>       0.00225394 </v>
   <v>       0.00225394 </v>
   <v>       0.00225394 </v>
   <v>       0.00225394 </v>
   <v>       0.00225394 </v>
   <v>       0.00225394 </v>
   <v>       0.00225394 </v>
   <v>       0.00450789 </v>
   <v>       0.00450789 </v>
   <v>       0.00450789 </v>
   <v>       0.00450789 </v>
   <v>       0.00450789 </v>
   <v>       0.00225394 </v>
   <v>       0.00450789 </v>
   <v>       0.00450789 </v>
   <v>       0.00450789 </v>
   <v>       0.00450789 </v>
   <v>       0.00225394 </v>
   <v>       0.00450789 </v>
   <v>       0.00450789 </v>
   <v>       0.00450789 </v>
   <v>       0.00225394 </v>
   <v>       0.00450789 </v>
   <v>       0.00450789 </v>
   <v>       0.00225394 </v>
   <v>       0.00450789 </v>
   <v>       0.00225394 </v>
   <v>       0.00075131 </v>
   <v>       0.00225394 </v>
   <v>       0.00225394 </v>
   <v>       0.00225394 </v>
   <v>       0.00225394 </v>
   <v>       0.00225394 </v>
   <v>       0.00225394 </v>
   <v>       0.00450789 </v>
   <v>       0.00450789 </v>
   <v>       0.00450789 </v>
   <v>       0.00450789 </v>
   <v>       0.00225394 </v>
   <v>       0.00450789 </v>
   <v>       0.00450789 </v>
   <v>       0.00450789 </v>
   <v>       0.00225394 </v>
   <v>       0.00450789 </v>
   <v>       0.00450789 </v>
   <v>       0.00225394 </v>
   <v>       0.00450789 </v>
   <v>       0.00225394 </v>
   <v>       0.00075131 </v>
   <v>       0.00225394 </v>
   <v>       0.00225394 </v>
   <v>       0.00225394 </v>
   <v>       0.00225394 </v>
   <v>       0.00225394 </v>
   <v>       0.00450789 </v>
   <v>       0.00450789 </v>
   <v>       0.00450789 </v>
   <v>       0.00225394 </v>
   <v>       0.00450789 </v>
   <v>       0.00450789 </v>
   <v>       0.00225394 </v>
   <v>       0.00450789 </v>
   <v>       0.00225394 </v>
   <v>       0.00075131 </v>
   <v>       0.00225394 </v>
   <v>       0.00225394 </v>
   <v>       0.00225394 </v>
   <v>       0.00225394 </v>
   <v>       0.00450789 </v>
   <v>       0.00450789 </v>
   <v>       0.00225394 </v>
   <v>       0.00450789 </v>
   <v>       0.00225394 </v>
   <v>       0.00075131 </v>
   <v>       0.00225394 </v>
   <v>       0.00225394 </v>
   <v>       0.00225394 </v>
   <v>       0.00450789 </v>
   <v>       0.00225394 </v>
   <v>       0.00075131 </v>
   <v>       0.00225394 </v>
   <v>       0.00225394 </v>
   <v>       0.00075131 </v>
  </varray>
 </kpoints>
 <parameters>
  <separator name="general" >
   <i type="string" name="SYSTEM">Al fcc relaxation</i>
   <i type="logical" name="LCOMPAT"> F  </i>
  </separator>
  <separator name="electronic" >
   <i type="string" name="PREC">accura</i>
   <i name="ENMAX">    400.00000000</i>
   <i name="ENAUG">    291.05200000</i>
   <i name="EDIFF">      0.00000100</i>
   <i type="int" name="IALGO">    68</i>
   <i type="int" name="IWAVPR">    11</i>
   <i type="int" name="NBANDS">    14</i>
   <i type="int" name="NBANDSLOW">    -1</i>
   <i type="int" name="NBANDSHIGH">    -1</i>
   <i name="NELECT">     12.00000000</i>
   <i type="int" name="TURBO">     0</i>
   <i type="int" name="IRESTART">     0</i>
   <i type="int" name="NREBOOT">     0</i>
   <i type="int" name="NMIN">     0</i>
   <i name="EREF">      0.00000000</i>
   <separator name="electronic smearing" >
    <i type="int" name="ISMEAR">     1</i>
    <i name="SIGMA">      0.20000000</i>
    <i name="KSPACING">      0.08000000</i>
    <i type="logical" name="KGAMMA"> T  </i>
    <i type="logical" name="KBLOWUP"> T  </i>
   </separator>
   <separator name="electronic projectors" >
    <i type="logical" name="LREAL"> T  </i>
    <v name="ROPT">     -0.00025000</v>
    <i type="int" name="LMAXPAW">  -100</i>
    <i type="int" name="LMAXMIX">     2</i>
    <i type="logical" name="NLSPLINE"> F  </i>
   </separator>
   <separator name="electronic startup" >
    <i type="int" name="ISTART">     0</i>
    <i type="int" name="ICHARG">     2</i>
    <i type="int" name="INIWAV">     1</i>
   </separator>
   <separator name="electronic spin" >
    <i type="int" name="ISPIN">     1</i>
    <i type="logical" name="LNONCOLLINEAR"> F  </i>
    <v name="MAGMOM">      1.00000000      1.00000000      1.00000000      1.00000000</v>
    <i name="NUPDOWN">     -1.00000000</i>
    <i type="logical" name="LSORBIT"> F  </i>
    <v name="SAXIS">      0.00000000      0.00000000      1.00000000</v>
    <i type="logical" name="LSPIRAL"> F  </i>
    <v name="QSPIRAL">      0.00000000      0.00000000      0.00000000</v>
    <i type="logical" name="LZEROZ"> F  </i>
   </separator>
   <separator name="electronic exchange-correlation" >
    <i type="logical" name="LASPH"> F  </i>
    <i type="logical" name="LMETAGGA"> F  </i>
   </separator>
   <separator name="electronic convergence" >
    <i type="int" name="NELM">    60</i>
    <i type="int" name="NELMDL">    -5</i>
    <i type="int" name="NELMIN">     4</i>
    <i name="ENINI">    400.00000000</i>
    <separator name="electronic convergence detail" >
     <i type="logical" name="LDIAG"> T  </i>
     <i type="logical" name="LSUBROT"> F  </i>
     <i name="WEIMIN">      0.00100000</i>
     <i name="EBREAK">      0.00000002</i>
     <i name="DEPER">      0.30000000</i>
     <i type="int" name="NRMM">     4</i>
     <i name="TIME">      0.40000000</i>
    </separator>
   </separator>
   <separator name="electronic mixer" >
    <i name="AMIX">      0.40000000</i>
    <i name="BMIX">      1.00000000</i>
    <i name="AMIN">      0.10000000</i>
    <i name="AMIX_MAG">      1.60000000</i>
    <i name="BMIX_MAG">      1.00000000</i>
    <separator name="electronic mixer details" >
     <i type="int" name="IMIX">     4</i>
     <i type="logical" name="MIXFIRST"> F  </i>
     <i type="int" name="MAXMIX">   -45</i>
     <i name="WC">    100.00000000</i>
     <i type="int" name="INIMIX">     1</i>
     <i type="int" name="MIXPRE">     1</i>
     <i type="int" name="MREMOVE">     5</i>
    </separator>
   </separator>
   <separator name="electronic dipolcorrection" >
    <i type="logical" name="LDIPOL"> F  </i>
    <i type="logical" name="LMONO"> F  </i>
    <i type="int" name="IDIPOL">     0</i>
    <i name="EPSILON">      1.00000000</i>
    <v name="DIPOL">   -100.00000000   -100.00000000   -100.00000000</v>
    <i name="EFIELD">      0.00000000</i>
   </separator>
  </separator>
  <separator name="grids" >
   <i type="int" name="NGX">    24</i>
   <i type="int" name="NGY">    24</i>
   <i type="int" name="NGZ">    24</i>
   <i type="int" name="NGXF">    48</i>
   <i type="int" name="NGYF">    48</i>
   <i type="int" name="NGZF">    48</i>
   <i type="logical" name="ADDGRID"> F  </i>
  </separator>
  <separator name="ionic" >
   <i type="int" name="NSW">   100</i>
   <i type="int" name="IBRION">     2</i>
   <i type="int" name="MDALGO">     0</i>
   <i type="int" name="ISIF">     4</i>
   <i name="PSTRESS">      0.00000000</i>
   <i name="EDIFFG">      0.00001000</i>
   <i type="int" name="NFREE">     1</i>
   <i name="POTIM">      0.50000000</i>
   <i name="SMASS">     -3.00000000</i>
   <i name="SCALEE">      1.00000000</i>
  </separator>
  <separator name="ionic md" >
   <i name="TEBEG">      0.00010000</i>
   <i name="TEEND">      0.00010000</i>
   <i type="int" name="NBLOCK">     1</i>
   <i type="int" name="KBLOCK">   100</i>
   <i type="int" name="NPACO">   256</i>
   <i name="APACO">     10.00000000</i>
  </separator>
  <separator name="symmetry" >
   <i type="int" name="ISYM">     2</i>
   <i name="SYMPREC">      0.00001000</i>
  </separator>
  <separator name="dos" >
   <i type="int" name="LORBIT">     0</i>
   <v name="RWIGS">     -1.00000000</v>
   <i type="int" name="NEDOS">   301</i>
   <i name="EMIN">     10.00000000</i>
   <i name="EMAX">    -10.00000000</i>
   <i name="EFERMI">      0.00000000</i>
  </separator>
  <separator name="writing" >
   <i type="int" name="NWRITE">     2</i>
   <i type="logical" name="LWAVE"> F  </i>
   <i type="logical" name="LDOWNSAMPLE"> F  </i>
   <i type="logical" name="LCHARG"> F  </i>
   <i type="logical" name="LPARD"> F  </i>
   <i type="logical" name="LVTOT"> F  </i>
   <i type="logical" name="LVHAR"> F  </i>
   <i type="logical" name="LELF"> F  </i>
   <i type="logical" name="LOPTICS"> F  </i>
   <v name="STM">      0.00000000      0.00000000      0.00000000      0.00000000      0.00000000      0.00000000      0.00000000</v>
  </separator>
  <separator name="performance" >
   <i type="int" name="NPAR">    14</i>
   <i type="int" name="NSIM">     4</i>
   <i type="int" name="NBLK">    -1</i>
   <i type="logical" name="LPLANE"> T  </i>
   <i type="logical" name="LSCALAPACK"> T  </i>
   <i type="logical" name="LSCAAWARE"> F  </i>
   <i type="logical" name="LSCALU"> F  </i>
   <i type="logical" name="LASYNC"> F  </i>
   <i type="logical" name="LORBITALREAL"> F  </i>
  </separator>
  <separator name="miscellaneous" >
   <i type="int" name="IDIOT">     3</i>
   <i type="int" name="PHON_NSTRUCT">    -1</i>
   <i type="logical" name="LMUSIC"> F  </i>
   <v name="POMASS">     26.98100000</v>
   <v name="DARWINR">      0.00000000</v>
   <v name="DARWINV">      1.00000000</v>
   <i type="logical" name="LCORR"> T  </i>
  </separator>
  <i type="logical" name="GGA_COMPAT"> T  </i>
  <i type="logical" name="LBERRY"> F  </i>
  <i type="int" name="ICORELEVEL">     0</i>
  <i type="logical" name="LDAU"> F  </i>
  <i type="int" name="I_CONSTRAINED_M">     0</i>
  <separator name="electronic exchange-correlation" >
   <i type="string" name="GGA">--</i>
   <i type="int" name="VOSKOWN">     0</i>
   <i type="logical" name="LHFCALC"> F  </i>
   <i type="string" name="PRECFOCK"></i>
   <i type="logical" name="LSYMGRAD"> F  </i>
   <i type="logical" name="LHFONE"> F  </i>
   <i type="logical" name="LRHFCALC"> F  </i>
   <i type="logical" name="LTHOMAS"> F  </i>
   <i type="logical" name="LMODELHF"> F  </i>
   <i type="logical" name="LFOCKACE"> F  </i>
   <i name="ENCUT4O">     -1.00000000</i>
   <i type="int" name="EXXOEP">     0</i>
   <i type="int" name="FOURORBIT">     0</i>
   <i name="AEXX">      0.00000000</i>
   <i name="HFALPHA">      0.00000000</i>
   <i name="MCALPHA">      0.00000000</i>
   <i name="ALDAX">      1.00000000</i>
   <i name="AGGAX">      1.00000000</i>
   <i name="ALDAC">      1.00000000</i>
   <i name="AGGAC">      1.00000000</i>
   <i type="int" name="NKREDX">     1</i>
   <i type="int" name="NKREDY">     1</i>
   <i type="int" name="NKREDZ">     1</i>
   <i type="logical" name="SHIFTRED"> F  </i>
   <i type="logical" name="ODDONLY"> F  </i>
   <i type="logical" name="EVENONLY"> F  </i>
   <i type="int" name="LMAXFOCK">     0</i>
   <i type="int" name="NMAXFOCKAE">     0</i>
   <i type="logical" name="LFOCKAEDFT"> F  </i>
   <i name="HFSCREEN">      0.00000000</i>
   <i name="HFSCREENC">      0.00000000</i>
   <i type="int" name="NBANDSGWLOW">     0</i>
  </separator>
  <separator name="vdW DFT" >
   <i type="logical" name="LUSE_VDW"> F  </i>
   <i type="int" name="IVDW_NL">     1</i>
   <i type="logical" name="LSPIN_VDW"> F  </i>
   <i name="Zab_VDW">     -0.84910000</i>
   <i name="PARAM1">      0.12340000</i>
   <i name="PARAM2">      1.00000000</i>
   <i name="PARAM3">      0.00000000</i>
  </separator>
  <separator name="model GW" >
   <i type="int" name="MODEL_GW">     0</i>
   <i name="MODEL_EPS0">      7.41227293</i>
   <i name="MODEL_ALPHA">      1.00000000</i>
  </separator>
  <separator name="linear response parameters" >
   <i type="logical" name="LEPSILON"> F  </i>
   <i type="logical" name="LRPA"> F  </i>
   <i type="logical" name="LNABLA"> F  </i>
   <i type="logical" name="LVEL"> F  </i>
   <i name="CSHIFT">      0.10000000</i>
   <i name="OMEGAMAX">     -1.00000000</i>
   <i name="DEG_THRESHOLD">      0.00200000</i>
   <i name="RTIME">     -0.10000000</i>
   <i name="WPLASMAI">      0.00000000</i>
   <v name="DFIELD">      0.00000000      0.00000000      0.00000000</v>
   <v name="WPLASMA">      0.00000000      0.00000000      0.00000000      0.00000000      0.00000000      0.00000000      0.00000000      0.00000000      0.00000000</v>
  </separator>
  <separator name="orbital magnetization" >
   <i type="logical" name="NUCIND"> F  </i>
   <v name="MAGPOS">      0.00000000      0.00000000      0.00000000</v>
   <i type="logical" name="LNICSALL"> T  </i>
   <i type="logical" name="ORBITALMAG"> F  </i>
   <i type="logical" name="LMAGBLOCH"> F  </i>
   <i type="logical" name="LCHIMAG"> F  </i>
   <i type="logical" name="LGAUGE"> T  </i>
   <i type="int" name="MAGATOM">     0</i>
   <v name="MAGDIPOL">      0.00000000      0.00000000      0.00000000</v>
   <v name="AVECCONST">      0.00000000      0.00000000      0.00000000</v>
  </separator>
  <separator name="response functions" >
   <i type="logical" name="LALL_IN_ONE"> F  </i>
   <i type="int" name="IALL_IN_ONE">    -1</i>
   <i type="int" name="NBANDS_WAVE">    -1</i>
   <i type="logical" name="LFINITE_TEMPERATURE"> F  </i>
   <i type="logical" name="LADDER"> F  </i>
   <i type="logical" name="LRPAFORCE"> F  </i>
   <i type="logical" name="LFXC"> F  </i>
   <i type="logical" name="LHARTREE"> T  </i>
   <i type="int" name="IBSE">     0</i>
   <v type="int" name="KPOINT">    -1     0     0     0</v>
   <i type="logical" name="LTCTC"> F  </i>
   <i type="logical" name="LTCTE"> F  </i>
   <i type="logical" name="LTETE"> F  </i>
   <i type="logical" name="LTRIPLET"> F  </i>
   <i type="logical" name="LFXCEPS"> F  </i>
   <i type="logical" name="LFXHEG"> F  </i>
   <i type="int" name="NATURALO">     2</i>
   <i type="logical" name="LHOLEGF"> F  </i>
   <i type="logical" name="L2ORDER"> F  </i>
   <i type="logical" name="LDMP1"> F  </i>
   <i type="logical" name="LMP2LT"> F  </i>
   <i type="logical" name="LSMP2LT"> F  </i>
   <i type="logical" name="LGWLF"> F  </i>
   <i name="ENCUTGW">     -1.60000002</i>
   <i name="ENCUTGWSOFT">     -1.60000002</i>
   <i name="ENCUTLF">     -1.00000000</i>
   <i type="logical" name="LESF_SPLINES"> F  </i>
   <i type="int" name="LMAXMP2">    -1</i>
   <i name="SCISSOR">      0.00000000</i>
   <i type="int" name="NOMEGA">     0</i>
   <i type="int" name="NOMEGAR">     0</i>
   <i type="int" name="NBANDSGW">    -1</i>
   <i type="int" name="NBANDSO">    -1</i>
   <i type="int" name="NBANDSV">    -1</i>
   <i type="int" name="NELMGW">     1</i>
   <i type="int" name="NELMHF">     1</i>
   <i type="int" name="DIM">     3</i>
   <i type="int" name="IESPILON">     4</i>
   <i type="int" name="ANTIRES">     0</i>
   <i name="OMEGAMAX">    -30.00000000</i>
   <i name="OMEGAMIN">    -30.00000000</i>
   <i name="OMEGATL">   -200.00000000</i>
   <i type="int" name="OMEGAGRID">     0</i>
   <i name="CSHIFT">     -0.10000000</i>
   <i type="logical" name="LSELFENERGY"> F  </i>
   <i type="logical" name="LSPECTRAL"> F  </i>
   <i type="logical" name="LSPECTRALGW"> F  </i>
   <i type="logical" name="LSINGLES"> F  </i>
   <i type="logical" name="LFERMIGW"> F  </i>
   <i type="logical" name="ODDONLYGW"> F  </i>
   <i type="logical" name="EVENONLYGW"> F  </i>
   <i type="int" name="NKREDLFX">     1</i>
   <i type="int" name="NKREDLFY">     1</i>
   <i type="int" name="NKREDLFZ">     1</i>
   <i type="int" name="MAXMEM">  2800</i>
   <i type="int" name="TELESCOPE">     0</i>
   <i type="int" name="NTAUPAR">    -1</i>
   <i type="int" name="NOMEGAPAR">    -1</i>
   <i name="DAMP_NEWTON">      0.80000001</i>
   <i name="LAMBDA">      1.00000000</i>
  </separator>
  <separator name="External order field" >
   <i name="OFIELD_KAPPA">      0.00000000</i>
   <v name="OFIELD_K">      0.00000000      0.00000000      0.00000000</v>
   <i name="OFIELD_Q6_NEAR">      0.00000000</i>
   <i name="OFIELD_Q6_FAR">      0.00000000</i>
   <i name="OFIELD_A">      0.00000000</i>
  </separator>
  <separator name="optional k-points parameters" >
   <i type="int" name="KPOINTS_OPT_MODE">     1</i>
   <i type="logical" name="LKPOINTS_OPT"> F  </i>
  </separator>
 </parameters>
 <atominfo>
  <atoms>       4 </atoms>
  <types>       1 </types>
  <array name="atoms" >
   <dimension dim="1">ion</dimension>
   <field type="string">element</field>
   <field type="int">atomtype</field>
   <set>
    <rc><c>Al</c><c>   1</c></rc>
    <rc><c>Al</c><c>   1</c></rc>
    <rc><c>Al</c><c>   1</c></rc>
    <rc><c>Al</c><c>   1</c></rc>
   </set>
  </array>
  <array name="atomtypes" >
   <dimension dim="1">type</dimension>
   <field type="int">atomspertype</field>
   <field type="string">element</field>
   <field>mass</field>
   <field>valence</field>
   <field type="string">pseudopotential</field>
   <set>
    <rc><c>   4</c><c>Al</c><c>     26.98100000</c><c>      3.00000000</c><c>  PAW_PBE Al 04Jan2001                  </c></rc>
   </set>
  </array>
 </atominfo>
 <structure name="initialpos" >
  <crystal>
   <varray name="basis" >
    <v>       3.66961116       0.00000000       0.00000000 </v>
    <v>      -0.00000000       3.66961116       0.00000000 </v>
    <v>       0.00000000       0.00000000       3.66961116 </v>
   </varray>
   <i name="volume">     49.41515289 </i>
   <varray name="rec_basis" >
    <v>       0.27250844       0.00000000      -0.00000000 </v>
    <v>       0.00000000       0.27250844       0.00000000 </v>
    <v>      -0.00000000      -0.00000000       0.27250844 </v>
   </varray>
  </crystal>
  <varray name="positions" >
   <v>       0.00000000       0.00000000       0.00000000 </v>
   <v>       0.00000000       0.50000000       0.50000000 </v>
   <v>       0.50000000       0.00000000       0.50000000 </v>
   <v>       0.50000000       0.50000000       0.00000000 </v>
  </varray>
 </structure>
 <calculation>
  <scstep>
   <time name="dav">   11.63    5.82</time>
   <time name="total">   11.67    5.84</time>
   <energy>
    <i name="alphaZ">     -1.08754006 </i>
    <i name="ewald">   -323.84322100 </i>
    <i name="hartreedc">     -0.25428548 </i>
    <i name="XCdc">   -102.78205564 </i>
    <i name="pawpsdc">    264.80062850 </i>
    <i name="pawaedc">   -136.98248303 </i>
    <i name="eentropy">     -0.00072234 </i>
    <i name="bandstr">     86.79859317 </i>
    <i name="atom">    214.15261729 </i>
    <i name="e_fr_energy">      0.80153141 </i>
    <i name="e_wo_entrp">      0.80225375 </i>
    <i name="e_0_energy">      0.80177219 </i>
   </energy>
  </scstep>
  <scstep>
   <time name="dav">   17.00    8.52</time>
   <time name="total">   17.01    8.52</time>
   <energy>
    <i name="e_fr_energy">    -13.35634034 </i>
    <i name="e_wo_entrp">    -13.35647475 </i>
    <i name="e_0_energy">    -13.35638515 </i>
   </energy>
  </scstep>
  <scstep>
   <time name="dav">   15.44    7.74</time>
   <time name="total">   15.44    7.74</time>
   <energy>
    <i name="e_fr_energy">    -13.42387094 </i>
    <i name="e_wo_entrp">    -13.42407544 </i>
    <i name="e_0_energy">    -13.42393911 </i>
   </energy>
  </scstep>
  <scstep>
   <time name="dav">   19.92    9.98</time>
   <time name="total">   19.93    9.98</time>
   <energy>
    <i name="e_fr_energy">    -13.42400427 </i>
    <i name="e_wo_entrp">    -13.42420806 </i>
    <i name="e_0_energy">    -13.42407220 </i>
   </energy>
  </scstep>
  <scstep>
   <time name="dav">   15.65    7.83</time>
   <time name="total">   16.02    8.02</time>
   <energy>
    <i name="e_fr_energy">    -13.42400431 </i>
    <i name="e_wo_entrp">    -13.42420809 </i>
    <i name="e_0_energy">    -13.42407224 </i>
   </energy>
  </scstep>
  <scstep>
   <time name="diag">    1.94    0.97</time>
   <time name="diis">    3.92    2.33</time>
   <time name="orth">    0.14    0.07</time>
   <time name="total">    6.42    3.59</time>
   <energy>
    <i name="e_fr_energy">    -13.34104430 </i>
    <i name="e_wo_entrp">    -13.34127450 </i>
    <i name="e_0_energy">    -13.34112103 </i>
   </energy>
  </scstep>
  <scstep>
   <time name="diag">    2.40    1.20</time>
   <time name="diis">    3.38    1.76</time>
   <time name="orth">    0.15    0.08</time>
   <time name="total">    6.35    3.25</time>
   <energy>
    <i name="e_fr_energy">    -13.28362660 </i>
    <i name="e_wo_entrp">    -13.28389148 </i>
    <i name="e_0_energy">    -13.28371489 </i>
   </energy>
  </scstep>
  <scstep>
   <time name="diag">    2.07    1.04</time>
   <time name="diis">    3.38    1.76</time>
   <time name="orth">    0.14    0.07</time>
   <time name="total">    6.01    3.08</time>
   <energy>
    <i name="e_fr_energy">    -13.28361499 </i>
    <i name="e_wo_entrp">    -13.28388181 </i>
    <i name="e_0_energy">    -13.28370393 </i>
   </energy>
  </scstep>
  <scstep>
   <time name="diag">    2.12    1.06</time>
   <time name="diis">    3.39    1.77</time>
   <time name="orth">    0.14    0.07</time>
   <time name="total">    6.06    3.11</time>
   <energy>
    <i name="e_fr_energy">    -13.28360180 </i>
    <i name="e_wo_entrp">    -13.28386922 </i>
    <i name="e_0_energy">    -13.28369094 </i>
   </energy>
  </scstep>
  <scstep>
   <time name="diag">    1.99    0.99</time>
   <time name="diis">    3.38    1.76</time>
   <time name="orth">    0.14    0.07</time>
   <time name="total">    5.92    3.04</time>
   <energy>
    <i name="e_fr_energy">    -13.28360145 </i>
    <i name="e_wo_entrp">    -13.28386882 </i>
    <i name="e_0_energy">    -13.28369057 </i>
   </energy>
  </scstep>
  <scstep>
   <time name="diag">    1.97    0.98</time>
   <time name="diis">    3.05    1.76</time>
   <time name="orth">    0.14    0.07</time>
   <time name="total">    5.57    3.02</time>
   <energy>
    <i name="e_fr_energy">    -13.28360317 </i>
    <i name="e_wo_entrp">    -13.28387043 </i>
    <i name="e_0_energy">    -13.28369226 </i>
   </energy>
  </scstep>
  <scstep>
   <time name="diag">    2.35    1.18</time>
   <time name="diis">    2.71    1.71</time>
   <time name="orth">    0.14    0.07</time>
   <time name="total">    5.25    2.99</time>
   <energy>
    <i name="alphaZ">     -1.08754006 </i>
    <i name="ewald">   -323.84322100 </i>
    <i name="hartreedc">     -0.79600443 </i>
    <i name="XCdc">   -102.07782132 </i>
    <i name="pawpsdc">    985.78550107 </i>
    <i name="pawaedc">   -858.30675563 </i>
    <i name="eentropy">      0.00026727 </i>
    <i name="bandstr">     72.88935424 </i>
    <i name="atom">    214.15261729 </i>
    <i name="e_fr_energy">    -13.28360257 </i>
    <i name="e_wo_entrp">    -13.28386984 </i>
    <i name="e_0_energy">    -13.28369166 </i>
   </energy>
  </scstep>
  <structure>
   <crystal>
    <varray name="basis" >
     <v>       3.66961116       0.00000000       0.00000000 </v>
     <v>      -0.00000000       3.66961116       0.00000000 </v>
     <v>       0.00000000       0.00000000       3.66961116 </v>
    </varray>
    <i name="volume">     49.41515289 </i>
    <varray name="rec_basis" >
     <v>       0.27250844       0.00000000      -0.00000000 </v>
     <v>       0.00000000       0.27250844       0.00000000 </v>
     <v>      -0.00000000      -0.00000000       0.27250844 </v>
    </varray>
   </crystal>
   <varray name="positions" >
    <v>       0.00000000       0.00000000       0.00000000 </v>
    <v>       0.00000000       0.50000000       0.50000000 </v>
    <v>       0.50000000       0.00000000       0.50000000 </v>
    <v>       0.50000000       0.50000000       0.00000000 </v>
   </varray>
  </structure>
  <varray name="forces" >
   <v>      -0.00000000      -0.00000000      -0.00000000 </v>
   <v>       0.00000000      -0.00000000       0.00000000 </v>
   <v>      -0.00000000       0.00000000       0.00000000 </v>
   <v>       0.00000000       0.00000000      -0.00000000 </v>
  </varray>
  <varray name="stress" >
   <v>     426.08641979      -0.00000000       0.00000000 </v>
   <v>      -0.00000000     426.08641979       0.00000000 </v>
   <v>       0.00000000       0.00000000     426.08641979 </v>
  </varray>
  <energy>
   <i name="e_fr_energy">    -13.28360257 </i>
   <i name="e_wo_entrp">    -13.28386984 </i>
   <i name="e_0_energy">    -13.28369166 </i>
  </energy>
  <time name="totalsc">  132.21   67.59</time>
  <eigenvalues>
   <array>
    <dimension dim="1">band</dimension>
    <dimension dim="2">kpoint</dimension>
    <dimension dim="3">spin</dimension>
    <field>eigene</field>
    <field>occ</field>
    <set>
     <set comment="spin 1">
      <set comment="kpoint 1">
       <r>   -1.8924    1.0000 </r>
       <r>    7.6650    1.0000 </r>
       <r>    7.6650    1.0000 </r>
       <r>    7.6650    1.0000 </r>
       <r>    9.6855    1.0000 </r>
       <r>    9.6855    1.0000 </r>
       <r>    9.6855    1.0000 </r>
       <r>   16.4824   -0.0000 </r>
       <r>   16.4824   -0.0000 </r>
       <r>   16.4824   -0.0000 </r>
       <r>   18.5470    0.0000 </r>
       <r>   18.5470    0.0000 </r>
       <r>   18.5472    0.0000 </r>
       <r>   18.6766    0.0000 </r>
      </set>
      <set comment="kpoint 2">
       <r>   -1.8471    1.0000 </r>
       <r>    7.0630    1.0000 </r>
       <r>    7.7048    1.0000 </r>
       <r>    7.7048    1.0000 </r>
       <r>    9.7232    1.0000 </r>
       <r>    9.7232    1.0000 </r>
       <r>   10.3595    1.0000 </r>
       <r>   15.9321   -0.0000 </r>
       <r>   15.9321   -0.0000 </r>
       <r>   16.5265   -0.0000 </r>
       <r>   18.3335    0.0000 </r>
       <r>   18.3335    0.0000 </r>
       <r>   18.5824    0.0000 </r>
       <r>   18.7132    0.0000 </r>
      </set>
      <set comment="kpoint 3">
       <r>   -1.7565    1.0000 </r>
       <r>    6.3124    1.0000 </r>
       <r>    7.7843    1.0000 </r>
       <r>    7.7843    1.0000 </r>
       <r>    9.7977    1.0000 </r>
       <r>    9.7977    1.0000 </r>
       <r>   11.2539    0.8811 </r>
       <r>   15.2280   -0.0000 </r>
       <r>   15.2280   -0.0000 </r>
       <r>   16.6147   -0.0000 </r>
       <r>   17.9139    0.0000 </r>
       <r>   17.9139    0.0000 </r>
       <r>   18.6530    0.0000 </r>
       <r>   18.7864    0.0000 </r>
      </set>
      <set comment="kpoint 4">
       <r>   -1.6208    1.0000 </r>
       <r>    5.5482    1.0000 </r>
       <r>    7.9036    1.0000 </r>
       <r>    7.9036    1.0000 </r>
       <r>    9.9075    1.0000 </r>
       <r>    9.9075    1.0000 </r>
       <r>   12.2337   -0.0000 </r>
       <r>   14.5079   -0.0000 </r>
       <r>   14.5079   -0.0000 </r>
       <r>   16.7470   -0.0000 </r>
       <r>   17.3978    0.0000 </r>
       <r>   17.3978    0.0000 </r>
       <r>   18.7591    0.0000 </r>
       <r>   18.8964    0.0000 </r>
      </set>
      <set comment="kpoint 5">
       <r>   -1.4402    1.0000 </r>
       <r>    4.8022    1.0000 </r>
       <r>    8.0626    1.0000 </r>
       <r>    8.0626    1.0000 </r>
       <r>   10.0495    1.0000 </r>
       <r>   10.0495    1.0000 </r>
       <r>   13.2666   -0.0000 </r>
       <r>   13.8075   -0.0000 </r>
       <r>   13.8075   -0.0000 </r>
       <r>   16.8438    0.0000 </r>
       <r>   16.8438    0.0000 </r>
       <r>   16.9232    0.0000 </r>
       <r>   18.9005    0.0000 </r>
       <r>   19.0434    0.0000 </r>
      </set>
      <set comment="kpoint 6">
       <r>   -1.2148    1.0000 </r>
       <r>    4.0857    1.0000 </r>
       <r>    8.2613    1.0000 </r>
       <r>    8.2613    1.0000 </r>
       <r>   10.2185    1.0000 </r>
       <r>   10.2185    1.0000 </r>
       <r>   13.1391   -0.0000 </r>
       <r>   13.1391   -0.0000 </r>
       <r>   14.3414   -0.0000 </r>
       <r>   16.2891   -0.0000 </r>
       <r>   16.2891   -0.0000 </r>
       <r>   17.1434    0.0000 </r>
       <r>   19.0775    0.0000 </r>
       <r>   19.2274    0.0000 </r>
      </set>
      <set comment="kpoint 7">
       <r>   -0.9449    1.0000 </r>
       <r>    3.4034    1.0000 </r>
       <r>    8.4996    1.0000 </r>
       <r>    8.4996    1.0000 </r>
       <r>   10.4063    1.0000 </r>
       <r>   10.4063    1.0000 </r>
       <r>   12.5100   -0.0000 </r>
       <r>   12.5100   -0.0000 </r>
       <r>   15.4531   -0.0000 </r>
       <r>   15.7596   -0.0000 </r>
       <r>   15.7596   -0.0000 </r>
       <r>   17.4074    0.0000 </r>
       <r>   19.2900    0.0000 </r>
       <r>   19.4489    0.0000 </r>
      </set>
      <set comment="kpoint 8">
       <r>   -0.6310    1.0000 </r>
       <r>    2.7578    1.0000 </r>
       <r>    8.7771    1.0000 </r>
       <r>    8.7771    1.0000 </r>
       <r>   10.5964    1.0000 </r>
       <r>   10.5964    1.0000 </r>
       <r>   11.9275   -0.0002 </r>
       <r>   11.9275   -0.0002 </r>
       <r>   15.2779   -0.0000 </r>
       <r>   15.2779   -0.0000 </r>
       <r>   16.5963   -0.0000 </r>
       <r>   17.7155    0.0000 </r>
       <r>   19.5381    0.0000 </r>
       <r>   19.7086    0.0000 </r>
      </set>
      <set comment="kpoint 9">
       <r>   -0.2735    1.0000 </r>
       <r>    2.1507    1.0000 </r>
       <r>    9.0932    1.0000 </r>
       <r>    9.0932    1.0000 </r>
       <r>   10.7448    1.0001 </r>
       <r>   10.7448    1.0001 </r>
       <r>   11.4197    0.2522 </r>
       <r>   11.4197    0.2522 </r>
       <r>   14.8683   -0.0000 </r>
       <r>   14.8683   -0.0000 </r>
       <r>   17.7589    0.0000 </r>
       <r>   18.0760    0.0000 </r>
       <r>   19.8217    0.0000 </r>
       <r>   20.0082    0.0000 </r>
      </set>
      <set comment="kpoint 10">
       <r>    0.1273    1.0000 </r>
       <r>    1.5832    1.0000 </r>
       <r>    9.4465    1.0000 </r>
       <r>    9.4465    1.0000 </r>
       <r>   10.6543    1.0000 </r>
       <r>   10.6543    1.0000 </r>
       <r>   11.1592    1.0245 </r>
       <r>   11.1592    1.0245 </r>
       <r>   14.5618   -0.0000 </r>
       <r>   14.5618   -0.0000 </r>
       <r>   18.4426    0.0000 </r>
       <r>   18.9792    0.0000 </r>
       <r>   19.8692    0.0000 </r>
       <r>   20.1408    0.0000 </r>
      </set>
      <set comment="kpoint 11">
       <r>    0.5707    1.0000 </r>
       <r>    1.0563    1.0000 </r>
       <r>    9.8284    1.0000 </r>
       <r>    9.8284    1.0000 </r>
       <r>   10.2732    1.0000 </r>
       <r>   10.2732    1.0000 </r>
       <r>   11.1725    1.0158 </r>
       <r>   11.1725    1.0158 </r>
       <r>   14.3946   -0.0000 </r>
       <r>   14.3946   -0.0000 </r>
       <r>   18.8808    0.0000 </r>
       <r>   19.3557    0.0000 </r>
       <r>   20.1551    0.0000 </r>
       <r>   20.4953    0.0000 </r>
      </set>
      <set comment="kpoint 12">
       <r>   -1.8018    1.0000 </r>
       <r>    7.1034    1.0000 </r>
       <r>    7.1034    1.0000 </r>
       <r>    7.7446    1.0000 </r>
       <r>    9.7599    1.0000 </r>
       <r>   10.3960    1.0000 </r>
       <r>   10.3960    1.0000 </r>
       <r>   15.4443   -0.0000 </r>
       <r>   15.9750   -0.0000 </r>
       <r>   15.9750   -0.0000 </r>
       <r>   18.3704    0.0000 </r>
       <r>   18.3704    0.0000 </r>
       <r>   18.6189    0.0000 </r>
       <r>   19.3113    0.0000 </r>
      </set>
      <set comment="kpoint 13">
       <r>   -1.7113    1.0000 </r>
       <r>    6.3535    1.0000 </r>
       <r>    7.1841    1.0000 </r>
       <r>    7.8241    1.0000 </r>
       <r>    9.8320    1.0000 </r>
       <r>   10.4680    1.0000 </r>
       <r>   11.2884    0.7754 </r>
       <r>   14.7832   -0.0000 </r>
       <r>   15.2703   -0.0000 </r>
       <r>   16.0607   -0.0000 </r>
       <r>   17.9535    0.0000 </r>
       <r>   18.3668    0.0000 </r>
       <r>   18.4444    0.0000 </r>
       <r>   19.3924    0.0000 </r>
      </set>
      <set comment="kpoint 14">
       <r>   -1.5756    1.0000 </r>
       <r>    5.5898    1.0000 </r>
       <r>    7.3050    1.0000 </r>
       <r>    7.9433    1.0000 </r>
       <r>    9.9372    1.0000 </r>
       <r>   10.5739    1.0000 </r>
       <r>   12.2655   -0.0000 </r>
       <r>   14.0922   -0.0000 </r>
       <r>   14.5500   -0.0000 </r>
       <r>   16.1894   -0.0000 </r>
       <r>   17.4409    0.0000 </r>
       <r>   17.8701    0.0000 </r>
       <r>   18.5556    0.0000 </r>
       <r>   19.5060    0.0000 </r>
      </set>
      <set comment="kpoint 15">
       <r>   -1.3950    1.0000 </r>
       <r>    4.8443    1.0000 </r>
       <r>    7.4659    1.0000 </r>
       <r>    8.1022    1.0000 </r>
       <r>   10.0704    1.0000 </r>
       <r>   10.7102    1.0000 </r>
       <r>   13.2943   -0.0000 </r>
       <r>   13.4179   -0.0000 </r>
       <r>   13.8498   -0.0000 </r>
       <r>   16.3610   -0.0000 </r>
       <r>   16.8915    0.0000 </r>
       <r>   17.3143    0.0000 </r>
       <r>   18.7042    0.0000 </r>
       <r>   19.6578    0.0000 </r>
      </set>
      <set comment="kpoint 16">
       <r>   -1.1698    1.0000 </r>
       <r>    4.1282    1.0000 </r>
       <r>    7.6664    1.0000 </r>
       <r>    8.3007    1.0000 </r>
       <r>   10.2217    1.0000 </r>
       <r>   10.8709    1.0015 </r>
       <r>   12.7832   -0.0000 </r>
       <r>   13.1826   -0.0000 </r>
       <r>   14.3627   -0.0000 </r>
       <r>   16.3431   -0.0000 </r>
       <r>   16.5759   -0.0000 </r>
       <r>   16.7512   -0.0000 </r>
       <r>   18.8910    0.0000 </r>
       <r>   19.8477    0.0000 </r>
      </set>
      <set comment="kpoint 17">
       <r>   -0.9000    1.0000 </r>
       <r>    3.4463    1.0000 </r>
       <r>    7.9059    1.0000 </r>
       <r>    8.5385    1.0000 </r>
       <r>   10.3690    1.0000 </r>
       <r>   11.0449    1.0247 </r>
       <r>   12.2121   -0.0000 </r>
       <r>   12.5568   -0.0000 </r>
       <r>   15.4625   -0.0000 </r>
       <r>   15.8234   -0.0000 </r>
       <r>   16.2081   -0.0000 </r>
       <r>   16.8361    0.0000 </r>
       <r>   19.1172    0.0000 </r>
       <r>   20.0762    0.0000 </r>
      </set>
      <set comment="kpoint 18">
       <r>   -0.5863    1.0000 </r>
       <r>    2.8010    1.0000 </r>
       <r>    8.1837    1.0000 </r>
       <r>    8.8150    1.0000 </r>
       <r>   10.4550    1.0000 </r>
       <r>   11.2037    0.9824 </r>
       <r>   11.7577   -0.0080 </r>
       <r>   11.9901   -0.0000 </r>
       <r>   15.3573   -0.0000 </r>
       <r>   15.7054   -0.0000 </r>
       <r>   16.5747   -0.0000 </r>
       <r>   17.1529    0.0000 </r>
       <r>   19.3855    0.0000 </r>
       <r>   20.3228    0.0000 </r>
      </set>
      <set comment="kpoint 19">
       <r>   -0.2289    1.0000 </r>
       <r>    2.1942    1.0000 </r>
       <r>    8.4981    1.0000 </r>
       <r>    9.1283    1.0000 </r>
       <r>   10.3620    1.0000 </r>
       <r>   11.1911    0.9983 </r>
       <r>   11.5274   -0.0012 </r>
       <r>   11.6190   -0.0346 </r>
       <r>   14.9741   -0.0000 </r>
       <r>   15.2637   -0.0000 </r>
       <r>   17.4054    0.0000 </r>
       <r>   17.8091    0.0000 </r>
       <r>   19.7038    0.0000 </r>
       <r>   19.7474    0.0000 </r>
      </set>
      <set comment="kpoint 20">
       <r>    0.1717    1.0000 </r>
       <r>    1.6269    1.0000 </r>
       <r>    8.8463    1.0000 </r>
       <r>    9.4672    1.0000 </r>
       <r>   10.0701    1.0000 </r>
       <r>   10.7954    1.0003 </r>
       <r>   11.5313   -0.0052 </r>
       <r>   11.6259   -0.0337 </r>
       <r>   14.7107   -0.0000 </r>
       <r>   14.9095   -0.0000 </r>
       <r>   17.8199    0.0000 </r>
       <r>   18.9058    0.0000 </r>
       <r>   19.2093    0.0000 </r>
       <r>   20.1005    0.0000 </r>
      </set>
      <set comment="kpoint 21">
       <r>    0.6149    1.0000 </r>
       <r>    1.1002    1.0000 </r>
       <r>    9.2206    1.0000 </r>
       <r>    9.5797    1.0000 </r>
       <r>    9.9574    1.0000 </r>
       <r>   10.3457    1.0000 </r>
       <r>   11.6108   -0.0352 </r>
       <r>   11.6538   -0.0286 </r>
       <r>   14.6057   -0.0000 </r>
       <r>   14.6777   -0.0000 </r>
       <r>   18.2462    0.0000 </r>
       <r>   18.7088    0.0000 </r>
       <r>   19.8770    0.0000 </r>
       <r>   20.5171    0.0000 </r>
      </set>
      <set comment="kpoint 22">
       <r>   -1.6208    1.0000 </r>
       <r>    6.4354    1.0000 </r>
       <r>    6.4354    1.0000 </r>
       <r>    7.9035    1.0000 </r>
       <r>    9.8986    1.0000 </r>
       <r>   11.3564    0.5065 </r>
       <r>   11.3564    0.5065 </r>
       <r>   14.1590   -0.0000 </r>
       <r>   15.3548   -0.0000 </r>
       <r>   15.3548   -0.0000 </r>
       <r>   18.0330    0.0000 </r>
       <r>   18.0330    0.0000 </r>
       <r>   18.7626    0.0000 </r>
       <r>   19.9074    0.0000 </r>
      </set>
      <set comment="kpoint 23">
       <r>   -1.4853    1.0000 </r>
       <r>    5.6729    1.0000 </r>
       <r>    6.5582    1.0000 </r>
       <r>    8.0226    1.0000 </r>
       <r>    9.9926    1.0000 </r>
       <r>   11.4553    0.1372 </r>
       <r>   12.3275   -0.0000 </r>
       <r>   13.4993   -0.0000 </r>
       <r>   14.6343   -0.0000 </r>
       <r>   15.4819   -0.0000 </r>
       <r>   17.5277    0.0000 </r>
       <r>   18.1529    0.0000 </r>
       <r>   18.5304    0.0000 </r>
       <r>   20.3821    0.0000 </r>
      </set>
      <set comment="kpoint 24">
       <r>   -1.3049    1.0000 </r>
       <r>    4.9284    1.0000 </r>
       <r>    6.7215    1.0000 </r>
       <r>    8.1813    1.0000 </r>
       <r>   10.1034    1.0000 </r>
       <r>   11.5805   -0.0332 </r>
       <r>   12.8624   -0.0000 </r>
       <r>   13.3469   -0.0000 </r>
       <r>   13.9350   -0.0000 </r>
       <r>   15.6520   -0.0000 </r>
       <r>   16.9880    0.0000 </r>
       <r>   18.0257    0.0000 </r>
       <r>   18.3143    0.0000 </r>
       <r>   20.5354    0.0000 </r>
      </set>
      <set comment="kpoint 25">
       <r>   -1.0798    1.0000 </r>
       <r>    4.2132    1.0000 </r>
       <r>    6.9250    1.0000 </r>
       <r>    8.3792    1.0000 </r>
       <r>   10.2067    1.0000 </r>
       <r>   11.7222   -0.0136 </r>
       <r>   12.2904   -0.0000 </r>
       <r>   13.2715   -0.0000 </r>
       <r>   14.3995   -0.0000 </r>
       <r>   15.8671   -0.0000 </r>
       <r>   16.4538   -0.0000 </r>
       <r>   17.4718    0.0000 </r>
       <r>   18.5196    0.0000 </r>
       <r>   20.7665    0.0000 </r>
      </set>
      <set comment="kpoint 26">
       <r>   -0.8103    1.0000 </r>
       <r>    3.5319    1.0000 </r>
       <r>    7.1680    1.0000 </r>
       <r>    8.6158    1.0000 </r>
       <r>   10.2441    1.0000 </r>
       <r>   11.8465   -0.0015 </r>
       <r>   11.8562   -0.0012 </r>
       <r>   12.6613   -0.0000 </r>
       <r>   15.4624   -0.0000 </r>
       <r>   15.9561   -0.0000 </r>
       <r>   16.1398   -0.0000 </r>
       <r>   16.9230    0.0000 </r>
       <r>   18.7735    0.0000 </r>
       <r>   20.1656    0.0000 </r>
      </set>
      <set comment="kpoint 27">
       <r>   -0.4968    1.0000 </r>
       <r>    2.8873    1.0000 </r>
       <r>    7.4496    1.0000 </r>
       <r>    8.8889    1.0000 </r>
       <r>   10.1180    1.0000 </r>
       <r>   11.6297   -0.0332 </r>
       <r>   11.8340   -0.0019 </r>
       <r>   12.2366   -0.0000 </r>
       <r>   15.5263   -0.0000 </r>
       <r>   16.3055   -0.0000 </r>
       <r>   16.4036   -0.0000 </r>
       <r>   16.6856   -0.0000 </r>
       <r>   19.0870    0.0000 </r>
       <r>   19.5578    0.0000 </r>
      </set>
      <set comment="kpoint 28">
       <r>   -0.1398    1.0000 </r>
       <r>    2.2811    1.0000 </r>
       <r>    7.7687    1.0000 </r>
       <r>    9.1861    1.0000 </r>
       <r>    9.8190    1.0000 </r>
       <r>   11.3996    0.3279 </r>
       <r>   11.6548   -0.0284 </r>
       <r>   12.2236   -0.0000 </r>
       <r>   15.2031   -0.0000 </r>
       <r>   15.9317   -0.0000 </r>
       <r>   16.6989   -0.0000 </r>
       <r>   17.7016    0.0000 </r>
       <r>   18.9864    0.0000 </r>
       <r>   19.4897    0.0000 </r>
      </set>
      <set comment="kpoint 29">
       <r>    0.2605    1.0000 </r>
       <r>    1.7144    1.0000 </r>
       <r>    8.1229    1.0000 </r>
       <r>    9.2846    1.0000 </r>
       <r>    9.6672    1.0000 </r>
       <r>   10.9025    1.0030 </r>
       <r>   11.8110   -0.0031 </r>
       <r>   12.2354   -0.0000 </r>
       <r>   15.0309   -0.0000 </r>
       <r>   15.5269   -0.0000 </r>
       <r>   17.0830    0.0000 </r>
       <r>   18.4528    0.0000 </r>
       <r>   18.6661    0.0000 </r>
       <r>   20.0595    0.0000 </r>
      </set>
      <set comment="kpoint 30">
       <r>    0.7033    1.0000 </r>
       <r>    1.1882    1.0000 </r>
       <r>    8.5080    1.0000 </r>
       <r>    8.9137    1.0000 </r>
       <r>   10.0069    1.0000 </r>
       <r>   10.4335    1.0000 </r>
       <r>   12.0013   -0.0000 </r>
       <r>   12.1587   -0.0000 </r>
       <r>   15.0389   -0.0000 </r>
       <r>   15.2168   -0.0000 </r>
       <r>   17.5013    0.0000 </r>
       <r>   17.9577    0.0000 </r>
       <r>   19.4217    0.0000 </r>
       <r>   20.0012    0.0000 </r>
      </set>
      <set comment="kpoint 31">
       <r>   -1.3500    1.0000 </r>
       <r>    5.7973    1.0000 </r>
       <r>    5.7973    1.0000 </r>
       <r>    8.1414    1.0000 </r>
       <r>   10.0632    1.0000 </r>
       <r>   12.4155   -0.0000 </r>
       <r>   12.4155   -0.0000 </r>
       <r>   12.8765   -0.0000 </r>
       <r>   14.7615   -0.0000 </r>
       <r>   14.7615   -0.0000 </r>
       <r>   17.6595    0.0000 </r>
       <r>   17.6595    0.0000 </r>
       <r>   18.9784    0.0000 </r>
       <r>   20.4241    0.0000 </r>
      </set>
      <set comment="kpoint 32">
       <r>   -1.1698    1.0000 </r>
       <r>    5.0544    1.0000 </r>
       <r>    5.9628    1.0000 </r>
       <r>    8.2995    1.0000 </r>
       <r>   10.1241    1.0000 </r>
       <r>   12.3006   -0.0000 </r>
       <r>   12.5213   -0.0000 </r>
       <r>   13.4170   -0.0000 </r>
       <r>   14.0654   -0.0000 </r>
       <r>   14.9338   -0.0000 </r>
       <r>   17.1365    0.0000 </r>
       <r>   17.8393    0.0000 </r>
       <r>   18.7829    0.0000 </r>
       <r>   20.7420    0.0000 </r>
      </set>
      <set comment="kpoint 33">
       <r>   -0.9450    1.0000 </r>
       <r>    4.3404    1.0000 </r>
       <r>    6.1691    1.0000 </r>
       <r>    8.4962    1.0000 </r>
       <r>   10.1173    1.0000 </r>
       <r>   11.8491   -0.0014 </r>
       <r>   12.6220   -0.0000 </r>
       <r>   13.4174   -0.0000 </r>
       <r>   14.4304   -0.0000 </r>
       <r>   15.1635   -0.0000 </r>
       <r>   16.6274   -0.0000 </r>
       <r>   18.0729    0.0000 </r>
       <r>   18.3004    0.0000 </r>
       <r>   20.0600    0.0000 </r>
      </set>
      <set comment="kpoint 34">
       <r>   -0.6759    1.0000 </r>
       <r>    3.6603    1.0000 </r>
       <r>    6.4157    1.0000 </r>
       <r>    8.7291    1.0000 </r>
       <r>    9.9530    1.0000 </r>
       <r>   11.6214   -0.0343 </r>
       <r>   12.5660   -0.0000 </r>
       <r>   12.9554   -0.0000 </r>
       <r>   15.2566   -0.0000 </r>
       <r>   15.6316   -0.0000 </r>
       <r>   16.1703   -0.0000 </r>
       <r>   17.7692    0.0000 </r>
       <r>   18.3727    0.0000 </r>
       <r>   19.4154    0.0000 </r>
      </set>
      <set comment="kpoint 35">
       <r>   -0.3628    1.0000 </r>
       <r>    3.0167    1.0000 </r>
       <r>    6.7017    1.0000 </r>
       <r>    8.9854    1.0000 </r>
       <r>    9.6265    1.0000 </r>
       <r>   11.6363   -0.0321 </r>
       <r>   12.0847   -0.0000 </r>
       <r>   12.9197   -0.0000 </r>
       <r>   15.6261   -0.0000 </r>
       <r>   15.8077   -0.0000 </r>
       <r>   16.5770   -0.0000 </r>
       <r>   17.2477    0.0000 </r>
       <r>   18.7666    0.0000 </r>
       <r>   18.8074    0.0000 </r>
      </set>
      <set comment="kpoint 36">
       <r>   -0.0062    1.0000 </r>
       <r>    2.4113    1.0000 </r>
       <r>    7.0262    1.0000 </r>
       <r>    9.0503    1.0000 </r>
       <r>    9.4390    1.0000 </r>
       <r>   11.5446   -0.0167 </r>
       <r>   11.8048   -0.0035 </r>
       <r>   12.9038   -0.0000 </r>
       <r>   15.5886   -0.0000 </r>
       <r>   15.9695   -0.0000 </r>
       <r>   16.7598   -0.0000 </r>
       <r>   17.5062    0.0000 </r>
       <r>   18.2369    0.0000 </r>
       <r>   19.3136    0.0000 </r>
      </set>
      <set comment="kpoint 37">
       <r>    0.3935    1.0000 </r>
       <r>    1.8454    1.0000 </r>
       <r>    7.3875    1.0000 </r>
       <r>    8.6504    1.0000 </r>
       <r>    9.7343    1.0000 </r>
       <r>   11.0321    1.0217 </r>
       <r>   12.0488   -0.0000 </r>
       <r>   12.7916   -0.0000 </r>
       <r>   15.5492   -0.0000 </r>
       <r>   16.3222   -0.0000 </r>
       <r>   16.3454   -0.0000 </r>
       <r>   17.7052    0.0000 </r>
       <r>   18.2820    0.0000 </r>
       <r>   19.9541    0.0000 </r>
      </set>
      <set comment="kpoint 38">
       <r>    0.8357    1.0000 </r>
       <r>    1.3199    1.0000 </r>
       <r>    7.7830    1.0000 </r>
       <r>    8.2079    1.0000 </r>
       <r>   10.1225    1.0000 </r>
       <r>   10.5569    1.0000 </r>
       <r>   12.3217   -0.0000 </r>
       <r>   12.5841   -0.0000 </r>
       <r>   15.6837   -0.0000 </r>
       <r>   15.9543   -0.0000 </r>
       <r>   16.7593   -0.0000 </r>
       <r>   17.2126    0.0000 </r>
       <r>   18.9002    0.0000 </r>
       <r>   19.4378    0.0000 </r>
      </set>
      <set comment="kpoint 39">
       <r>   -0.9899    1.0000 </r>
       <r>    5.2220    1.0000 </r>
       <r>    5.2220    1.0000 </r>
       <r>    8.4563    1.0000 </r>
       <r>   10.0749    1.0000 </r>
       <r>   11.8432   -0.0016 </r>
       <r>   13.4825   -0.0000 </r>
       <r>   13.4825   -0.0000 </r>
       <r>   14.2530   -0.0000 </r>
       <r>   14.2530   -0.0000 </r>
       <r>   17.3434    0.0000 </r>
       <r>   17.3434    0.0000 </r>
       <r>   19.2668    0.0000 </r>
       <r>   20.0235    0.0000 </r>
      </set>
      <set comment="kpoint 40">
       <r>   -0.7655    1.0000 </r>
       <r>    4.5096    1.0000 </r>
       <r>    5.4308    1.0000 </r>
       <r>    8.6492    1.0000 </r>
       <r>    9.8703    1.0000 </r>
       <r>   11.5996   -0.0354 </r>
       <r>   13.3824   -0.0000 </r>
       <r>   13.7634   -0.0000 </r>
       <r>   14.2802   -0.0000 </r>
       <r>   14.6564   -0.0000 </r>
       <r>   16.8774    0.0000 </r>
       <r>   17.6217    0.0000 </r>
       <r>   19.1146    0.0000 </r>
       <r>   19.3414    0.0000 </r>
      </set>
      <set comment="kpoint 41">
       <r>   -0.4969    1.0000 </r>
       <r>    3.8311    1.0000 </r>
       <r>    5.6805    1.0000 </r>
       <r>    8.8650    1.0000 </r>
       <r>    9.5085    1.0000 </r>
       <r>   11.5935   -0.0351 </r>
       <r>   12.8509   -0.0000 </r>
       <r>   13.7053   -0.0000 </r>
       <r>   14.6233   -0.0000 </r>
       <r>   15.5350   -0.0000 </r>
       <r>   16.4911   -0.0000 </r>
       <r>   17.9981    0.0000 </r>
       <r>   18.6681    0.0000 </r>
       <r>   18.6954    0.0000 </r>
      </set>
      <set comment="kpoint 42">
       <r>   -0.1844    1.0000 </r>
       <r>    3.1888    1.0000 </r>
       <r>    5.9704    1.0000 </r>
       <r>    8.8913    1.0000 </r>
       <r>    9.2843    1.0000 </r>
       <r>   11.7456   -0.0097 </r>
       <r>   12.2686   -0.0000 </r>
       <r>   13.6574   -0.0000 </r>
       <r>   14.9263   -0.0000 </r>
       <r>   16.2394   -0.0000 </r>
       <r>   16.4212   -0.0000 </r>
       <r>   18.0869    0.0000 </r>
       <r>   18.1700    0.0000 </r>
       <r>   18.5223    0.0000 </r>
      </set>
      <set comment="kpoint 43">
       <r>    0.1716    1.0000 </r>
       <r>    2.5846    1.0000 </r>
       <r>    6.2997    1.0000 </r>
       <r>    8.4560    1.0000 </r>
       <r>    9.5377    1.0000 </r>
       <r>   11.7147   -0.0151 </r>
       <r>   11.9873   -0.0000 </r>
       <r>   13.5081   -0.0000 </r>
       <r>   15.2606   -0.0000 </r>
       <r>   16.1640   -0.0000 </r>
       <r>   17.1820    0.0000 </r>
       <r>   17.5171    0.0000 </r>
       <r>   17.6824    0.0000 </r>
       <r>   19.2527    0.0000 </r>
      </set>
      <set comment="kpoint 44">
       <r>    0.5706    1.0000 </r>
       <r>    2.0198    1.0000 </r>
       <r>    6.6672    1.0000 </r>
       <r>    7.9743    1.0000 </r>
       <r>    9.8861    1.0000 </r>
       <r>   11.1975    0.9907 </r>
       <r>   12.2827   -0.0000 </r>
       <r>   13.2569   -0.0000 </r>
       <r>   15.6327   -0.0000 </r>
       <r>   16.2623   -0.0000 </r>
       <r>   16.9864    0.0000 </r>
       <r>   17.2298    0.0000 </r>
       <r>   17.8046    0.0000 </r>
       <r>   19.3624    0.0000 </r>
      </set>
      <set comment="kpoint 45">
       <r>    1.0120    1.0000 </r>
       <r>    1.4953    1.0000 </r>
       <r>    7.0711    1.0000 </r>
       <r>    7.5085    1.0000 </r>
       <r>   10.2817    1.0000 </r>
       <r>   10.7195    1.0000 </r>
       <r>   12.6088   -0.0000 </r>
       <r>   12.9435   -0.0000 </r>
       <r>   16.0441   -0.0000 </r>
       <r>   16.4954   -0.0000 </r>
       <r>   16.4967   -0.0000 </r>
       <r>   16.8283    0.0000 </r>
       <r>   18.3441    0.0000 </r>
       <r>   18.8537    0.0000 </r>
      </set>
      <set comment="kpoint 46">
       <r>   -0.5416    1.0000 </r>
       <r>    4.7207    1.0000 </r>
       <r>    4.7207    1.0000 </r>
       <r>    8.8249    1.0000 </r>
       <r>    9.4689    1.0000 </r>
       <r>   11.5749   -0.0318 </r>
       <r>   13.6974   -0.0000 </r>
       <r>   13.6974   -0.0000 </r>
       <r>   14.5776   -0.0000 </r>
       <r>   14.5776   -0.0000 </r>
       <r>   17.2293    0.0000 </r>
       <r>   17.2293    0.0000 </r>
       <r>   18.6576    0.0000 </r>
       <r>   19.6281    0.0000 </r>
      </set>
      <set comment="kpoint 47">
       <r>   -0.2736    1.0000 </r>
       <r>    4.0441    1.0000 </r>
       <r>    4.9731    1.0000 </r>
       <r>    8.8113    1.0000 </r>
       <r>    9.2063    1.0000 </r>
       <r>   11.7040   -0.0173 </r>
       <r>   13.0742   -0.0000 </r>
       <r>   13.9604   -0.0000 </r>
       <r>   14.4953   -0.0000 </r>
       <r>   15.4169   -0.0000 </r>
       <r>   16.9592    0.0000 </r>
       <r>   17.7277    0.0000 </r>
       <r>   18.0107    0.0000 </r>
       <r>   19.5224    0.0000 </r>
      </set>
      <set comment="kpoint 48">
       <r>    0.0382    1.0000 </r>
       <r>    3.4035    1.0000 </r>
       <r>    5.2665    1.0000 </r>
       <r>    8.3377    1.0000 </r>
       <r>    9.4193    1.0000 </r>
       <r>   11.9250   -0.0002 </r>
       <r>   12.4794   -0.0000 </r>
       <r>   14.2531   -0.0000 </r>
       <r>   14.3073   -0.0000 </r>
       <r>   16.1473   -0.0000 </r>
       <r>   16.8590    0.0000 </r>
       <r>   17.4020    0.0000 </r>
       <r>   18.4207    0.0000 </r>
       <r>   19.1191    0.0000 </r>
      </set>
      <set comment="kpoint 49">
       <r>    0.3934    1.0000 </r>
       <r>    2.8009    1.0000 </r>
       <r>    5.5999    1.0000 </r>
       <r>    7.8159    1.0000 </r>
       <r>    9.7279    1.0000 </r>
       <r>   11.9211   -0.0003 </r>
       <r>   12.2070   -0.0000 </r>
       <r>   14.0139   -0.0000 </r>
       <r>   14.5835   -0.0000 </r>
       <r>   16.7542   -0.0000 </r>
       <r>   16.8325    0.0000 </r>
       <r>   16.9286    0.0000 </r>
       <r>   18.6592    0.0000 </r>
       <r>   19.2898    0.0000 </r>
      </set>
      <set comment="kpoint 50">
       <r>    0.7915    1.0000 </r>
       <r>    2.2374    1.0000 </r>
       <r>    5.9725    1.0000 </r>
       <r>    7.3090    1.0000 </r>
       <r>   10.0839    1.0000 </r>
       <r>   11.4016    0.3202 </r>
       <r>   12.5336   -0.0000 </r>
       <r>   13.6557   -0.0000 </r>
       <r>   14.9534   -0.0000 </r>
       <r>   16.3027   -0.0000 </r>
       <r>   17.1310    0.0000 </r>
       <r>   17.2808    0.0000 </r>
       <r>   18.2091    0.0000 </r>
       <r>   18.7688    0.0000 </r>
      </set>
      <set comment="kpoint 51">
       <r>    1.2319    1.0000 </r>
       <r>    1.7142    1.0000 </r>
       <r>    6.3831    1.0000 </r>
       <r>    6.8296    1.0000 </r>
       <r>   10.4824    1.0000 </r>
       <r>   10.9218    1.0043 </r>
       <r>   12.8931   -0.0000 </r>
       <r>   13.2729   -0.0000 </r>
       <r>   15.3631   -0.0000 </r>
       <r>   15.8129   -0.0000 </r>
       <r>   17.4281    0.0000 </r>
       <r>   17.7751    0.0000 </r>
       <r>   17.7934    0.0000 </r>
       <r>   18.2660    0.0000 </r>
      </set>
      <set comment="kpoint 52">
       <r>   -0.0063    1.0000 </r>
       <r>    4.2989    1.0000 </r>
       <r>    4.2989    1.0000 </r>
       <r>    8.2980    1.0000 </r>
       <r>    9.3798    1.0000 </r>
       <r>   11.9008   -0.0004 </r>
       <r>   13.3258   -0.0000 </r>
       <r>   13.3258   -0.0000 </r>
       <r>   15.1877   -0.0000 </r>
       <r>   15.1877   -0.0000 </r>
       <r>   17.3635    0.0000 </r>
       <r>   17.6167    0.0000 </r>
       <r>   17.6167    0.0000 </r>
       <r>   19.8126    0.0000 </r>
      </set>
      <set comment="kpoint 53">
       <r>    0.3047    1.0000 </r>
       <r>    3.6604    1.0000 </r>
       <r>    4.5950    1.0000 </r>
       <r>    7.7362    1.0000 </r>
       <r>    9.6487    1.0000 </r>
       <r>   12.1588   -0.0000 </r>
       <r>   12.7270   -0.0000 </r>
       <r>   13.6146   -0.0000 </r>
       <r>   14.8518   -0.0000 </r>
       <r>   15.7668   -0.0000 </r>
       <r>   16.7550   -0.0000 </r>
       <r>   17.6673    0.0000 </r>
       <r>   18.4660    0.0000 </r>
       <r>   19.2488    0.0000 </r>
      </set>
      <set comment="kpoint 54">
       <r>    0.6589    1.0000 </r>
       <r>    3.0596    1.0000 </r>
       <r>    4.9320    1.0000 </r>
       <r>    7.1883    1.0000 </r>
       <r>    9.9650    1.0000 </r>
       <r>   12.1664   -0.0000 </r>
[...]
       <r>    3.6544    1.0000 </r>
       <r>    5.0187    1.0000 </r>
       <r>    5.0187    1.0000 </r>
       <r>    5.7410    1.0000 </r>
       <r>    6.8412    1.0000 </r>
       <r>    7.5554    1.0000 </r>
       <r>    7.5554    1.0000 </r>
       <r>    8.8882    1.0000 </r>
       <r>   21.4452    0.0000 </r>
       <r>   22.0531    0.0000 </r>
       <r>   22.0532    0.0000 </r>
       <r>   22.9004    0.0000 </r>
       <r>   22.9012    0.0000 </r>
       <r>   23.0151    0.0000 </r>
      </set>
      <set comment="kpoint 281">
       <r>    4.0761    1.0000 </r>
       <r>    4.5332    1.0000 </r>
       <r>    5.3894    1.0000 </r>
       <r>    5.7002    1.0000 </r>
       <r>    6.7986    1.0000 </r>
       <r>    7.1068    1.0000 </r>
       <r>    7.9497    1.0000 </r>
       <r>    8.3962    1.0000 </r>
       <r>   21.7734    0.0000 </r>
       <r>   22.0077    0.0000 </r>
       <r>   22.8108    0.0000 </r>
       <r>   23.0399    0.0000 </r>
       <r>   23.1645    0.0000 </r>
       <r>   23.2957    0.0000 </r>
      </set>
      <set comment="kpoint 282">
       <r>    4.4909    1.0000 </r>
       <r>    4.9351    1.0000 </r>
       <r>    4.9351    1.0000 </r>
       <r>    5.3481    1.0000 </r>
       <r>    7.0648    1.0000 </r>
       <r>    7.4724    1.0000 </r>
       <r>    7.4724    1.0000 </r>
       <r>    7.9084    1.0000 </r>
       <r>   22.1871    0.0000 </r>
       <r>   22.5364    0.0000 </r>
       <r>   22.5365    0.0000 </r>
       <r>   22.9454    0.0000 </r>
       <r>   23.6760    0.0000 </r>
       <r>   23.7561    0.0000 </r>
      </set>
      <set comment="kpoint 283">
       <r>    4.0336    1.0000 </r>
       <r>    5.3480    1.0000 </r>
       <r>    5.3480    1.0000 </r>
       <r>    5.3480    1.0000 </r>
       <r>    7.0649    1.0000 </r>
       <r>    7.0649    1.0000 </r>
       <r>    7.0649    1.0000 </r>
       <r>    8.3555    1.0000 </r>
       <r>   22.5107    0.0000 </r>
       <r>   22.5107    0.0000 </r>
       <r>   22.5107    0.0000 </r>
       <r>   23.3017    0.0000 </r>
       <r>   23.3017    0.0000 </r>
       <r>   23.3034    0.0000 </r>
      </set>
      <set comment="kpoint 284">
       <r>    4.4487    1.0000 </r>
       <r>    4.8932    1.0000 </r>
       <r>    5.6184    1.0000 </r>
       <r>    5.6184    1.0000 </r>
       <r>    6.7137    1.0000 </r>
       <r>    6.7137    1.0000 </r>
       <r>    7.4310    1.0000 </r>
       <r>    7.8674    1.0000 </r>
       <r>   22.7463    0.0000 </r>
       <r>   22.7469    0.0000 </r>
       <r>   23.4738    0.0000 </r>
       <r>   23.4786    0.0000 </r>
       <r>   23.4879    0.0000 </r>
       <r>   23.6324    0.0000 </r>
      </set>
      <set comment="kpoint 285">
       <r>    4.8513    1.0000 </r>
       <r>    5.2651    1.0000 </r>
       <r>    5.2651    1.0000 </r>
       <r>    5.5776    1.0000 </r>
       <r>    6.6711    1.0000 </r>
       <r>    6.9809    1.0000 </r>
       <r>    6.9809    1.0000 </r>
       <r>    7.3894    1.0000 </r>
       <r>   23.1865    0.0000 </r>
       <r>   23.4399    0.0000 </r>
       <r>   23.4426    0.0000 </r>
       <r>   23.8149    0.0000 </r>
       <r>   23.9008    0.0000 </r>
       <r>   23.9498    0.0000 </r>
      </set>
      <set comment="kpoint 286">
       <r>    5.2237    1.0000 </r>
       <r>    5.5367    1.0000 </r>
       <r>    5.5367    1.0000 </r>
       <r>    5.5367    1.0000 </r>
       <r>    6.6284    1.0000 </r>
       <r>    6.6284    1.0000 </r>
       <r>    6.6284    1.0000 </r>
       <r>    6.9388    1.0000 </r>
       <r>   23.9911    0.0000 </r>
       <r>   23.9924    0.0000 </r>
       <r>   24.0018    0.0000 </r>
       <r>   24.1130    0.0000 </r>
       <r>   24.1136    0.0000 </r>
       <r>   24.1513    0.0000 </r>
      </set>
     </set>
    </set>
   </array>
  </eigenvalues>
  <separator name="orbital magnetization" >
   <v name="MAGDIPOLOUT">      0.00000000      0.00000000      0.00000000</v>
  </separator>
  <dos>
   <i name="efermi">     11.35794952 </i>
   <total>
    <array>
     <dimension dim="1">gridpoints</dimension>
     <dimension dim="2">spin</dimension>
     <field>energy</field>
     <field>total</field>
     <field>integrated</field>
     <set>
      <set comment="spin 1">
       <r>    -3.8924     0.0000     0.0000 </r>
       <r>    -3.7923     0.0000     0.0000 </r>
       <r>    -3.6921     0.0000     0.0000 </r>
       <r>    -3.5920    -0.0000    -0.0000 </r>
       <r>    -3.4918    -0.0000    -0.0000 </r>
       <r>    -3.3917    -0.0000    -0.0000 </r>
       <r>    -3.2915    -0.0000    -0.0000 </r>
       <r>    -3.1914    -0.0000    -0.0000 </r>
       <r>    -3.0912    -0.0000    -0.0000 </r>
       <r>    -2.9911    -0.0000    -0.0000 </r>
       <r>    -2.8910    -0.0000    -0.0000 </r>
       <r>    -2.7908    -0.0000    -0.0000 </r>
       <r>    -2.6907    -0.0000    -0.0000 </r>
       <r>    -2.5905    -0.0000    -0.0000 </r>
       <r>    -2.4904    -0.0000    -0.0000 </r>
       <r>    -2.3902    -0.0000    -0.0000 </r>
       <r>    -2.2901    -0.0004    -0.0000 </r>
       <r>    -2.1899    -0.0017    -0.0002 </r>
       <r>    -2.0898    -0.0039    -0.0006 </r>
       <r>    -1.9896     0.0007    -0.0005 </r>
       <r>    -1.8895     0.0275     0.0022 </r>
       <r>    -1.7894     0.0792     0.0101 </r>
       <r>    -1.6892     0.1357     0.0237 </r>
       <r>    -1.5891     0.1797     0.0417 </r>
       <r>    -1.4889     0.2121     0.0630 </r>
       <r>    -1.3888     0.2391     0.0869 </r>
       <r>    -1.2886     0.2627     0.1132 </r>
       <r>    -1.1885     0.2863     0.1419 </r>
       <r>    -1.0883     0.3066     0.1726 </r>
       <r>    -0.9882     0.3244     0.2051 </r>
       <r>    -0.8880     0.3472     0.2399 </r>
       <r>    -0.7879     0.3637     0.2763 </r>
       <r>    -0.6878     0.3749     0.3138 </r>
       <r>    -0.5876     0.3975     0.3536 </r>
       <r>    -0.4875     0.4191     0.3956 </r>
       <r>    -0.3873     0.4211     0.4378 </r>
       <r>    -0.2872     0.4342     0.4813 </r>
       <r>    -0.1870     0.4673     0.5281 </r>
       <r>    -0.0869     0.4769     0.5758 </r>
       <r>     0.0133     0.4726     0.6231 </r>
       <r>     0.1134     0.4903     0.6722 </r>
       <r>     0.2136     0.5193     0.7242 </r>
       <r>     0.3137     0.5365     0.7780 </r>
       <r>     0.4138     0.5335     0.8314 </r>
       <r>     0.5140     0.5260     0.8841 </r>
       <r>     0.6141     0.5566     0.9398 </r>
       <r>     0.7143     0.6033     1.0002 </r>
       <r>     0.8144     0.5953     1.0599 </r>
       <r>     0.9146     0.5660     1.1165 </r>
       <r>     1.0147     0.5908     1.1757 </r>
       <r>     1.1149     0.6360     1.2394 </r>
       <r>     1.2150     0.6466     1.3041 </r>
       <r>     1.3152     0.6459     1.3688 </r>
       <r>     1.4153     0.6442     1.4333 </r>
       <r>     1.5154     0.6408     1.4975 </r>
       <r>     1.6156     0.6586     1.5635 </r>
       <r>     1.7157     0.7035     1.6339 </r>
       <r>     1.8159     0.7330     1.7073 </r>
       <r>     1.9160     0.7091     1.7784 </r>
       <r>     2.0162     0.6693     1.8454 </r>
       <r>     2.1163     0.6854     1.9140 </r>
       <r>     2.2165     0.7626     1.9904 </r>
       <r>     2.3166     0.7993     2.0704 </r>
       <r>     2.4168     0.7565     2.1462 </r>
       <r>     2.5169     0.7317     2.2195 </r>
       <r>     2.6170     0.7621     2.2958 </r>
       <r>     2.7172     0.7820     2.3741 </r>
       <r>     2.8173     0.7864     2.4529 </r>
       <r>     2.9175     0.8125     2.5342 </r>
       <r>     3.0176     0.8471     2.6191 </r>
       <r>     3.1178     0.8520     2.7044 </r>
       <r>     3.2179     0.8095     2.7855 </r>
       <r>     3.3181     0.7753     2.8631 </r>
       <r>     3.4182     0.8278     2.9460 </r>
       <r>     3.5184     0.9076     3.0369 </r>
       <r>     3.6185     0.9259     3.1296 </r>
       <r>     3.7187     0.9065     3.2204 </r>
       <r>     3.8188     0.8578     3.3063 </r>
       <r>     3.9189     0.8298     3.3894 </r>
       <r>     4.0191     0.8916     3.4787 </r>
       <r>     4.1192     0.9614     3.5750 </r>
       <r>     4.2194     0.9566     3.6708 </r>
       <r>     4.3195     0.9379     3.7647 </r>
       <r>     4.4197     0.9460     3.8595 </r>
       <r>     4.5198     0.9686     3.9565 </r>
       <r>     4.6200     0.9782     4.0544 </r>
       <r>     4.7201     0.9396     4.1485 </r>
       <r>     4.8203     0.9240     4.2411 </r>
       <r>     4.9204     1.0077     4.3420 </r>
       <r>     5.0205     1.0964     4.4518 </r>
       <r>     5.1207     1.0862     4.5606 </r>
       <r>     5.2208     1.0311     4.6638 </r>
       <r>     5.3210     0.9980     4.7638 </r>
       <r>     5.4211     1.0024     4.8642 </r>
       <r>     5.5213     1.0770     4.9720 </r>
       <r>     5.6214     1.1910     5.0913 </r>
       <r>     5.7216     1.2335     5.2148 </r>
       <r>     5.8217     1.1592     5.3309 </r>
       <r>     5.9219     1.0680     5.4379 </r>
       <r>     6.0220     1.0660     5.5446 </r>
       <r>     6.1221     1.0822     5.6530 </r>
       <r>     6.2223     1.0431     5.7575 </r>
       <r>     6.3224     1.0185     5.8594 </r>
       <r>     6.4226     1.0243     5.9620 </r>
       <r>     6.5227     1.0062     6.0628 </r>
       <r>     6.6229     1.0221     6.1652 </r>
       <r>     6.7230     1.1054     6.2759 </r>
       <r>     6.8232     1.1197     6.3880 </r>
       <r>     6.9233     1.0271     6.4908 </r>
       <r>     7.0235     0.9962     6.5906 </r>
       <r>     7.1236     1.1033     6.7011 </r>
       <r>     7.2237     1.2336     6.8246 </r>
       <r>     7.3239     1.2534     6.9502 </r>
       <r>     7.4240     1.1867     7.0690 </r>
       <r>     7.5242     1.1302     7.1822 </r>
       <r>     7.6243     1.1195     7.2943 </r>
       <r>     7.7245     1.2217     7.4167 </r>
       <r>     7.8246     1.3718     7.5540 </r>
       <r>     7.9248     1.3675     7.6910 </r>
       <r>     8.0249     1.2505     7.8162 </r>
       <r>     8.1251     1.2076     7.9372 </r>
       <r>     8.2252     1.2377     8.0611 </r>
       <r>     8.3253     1.2535     8.1866 </r>
       <r>     8.4255     1.2793     8.3148 </r>
       <r>     8.5256     1.2878     8.4437 </r>
       <r>     8.6258     1.1863     8.5625 </r>
       <r>     8.7259     1.0897     8.6717 </r>
       <r>     8.8261     1.1626     8.7881 </r>
       <r>     8.9262     1.2445     8.9127 </r>
       <r>     9.0264     1.1863     9.0315 </r>
       <r>     9.1265     1.1624     9.1479 </r>
       <r>     9.2267     1.1880     9.2669 </r>
       <r>     9.3268     1.1789     9.3850 </r>
       <r>     9.4269     1.2299     9.5081 </r>
       <r>     9.5271     1.2949     9.6378 </r>
       <r>     9.6272     1.2729     9.7653 </r>
       <r>     9.7274     1.2792     9.8934 </r>
       <r>     9.8275     1.3633    10.0299 </r>
       <r>     9.9277     1.4259    10.1727 </r>
       <r>    10.0278     1.4689    10.3198 </r>
       <r>    10.1280     1.4986    10.4699 </r>
       <r>    10.2281     1.4494    10.6151 </r>
       <r>    10.3283     1.3549    10.7508 </r>
       <r>    10.4284     1.3175    10.8827 </r>
       <r>    10.5286     1.3529    11.0182 </r>
       <r>    10.6287     1.4045    11.1588 </r>
       <r>    10.7288     1.4087    11.2999 </r>
       <r>    10.8290     1.2999    11.4301 </r>
       <r>    10.9291     1.1395    11.5442 </r>
       <r>    11.0293     1.0333    11.6477 </r>
       <r>    11.1294     1.0091    11.7487 </r>
       <r>    11.2296     1.0483    11.8537 </r>
       <r>    11.3297     1.1245    11.9663 </r>
       <r>    11.4299     1.2386    12.0904 </r>
       <r>    11.5300     1.3743    12.2280 </r>
       <r>    11.6302     1.4793    12.3761 </r>
       <r>    11.7303     1.4567    12.5220 </r>
       <r>    11.8304     1.3420    12.6564 </r>
       <r>    11.9306     1.3047    12.7871 </r>
       <r>    12.0307     1.3635    12.9236 </r>
       <r>    12.1309     1.4237    13.0662 </r>
       <r>    12.2310     1.4753    13.2139 </r>
       <r>    12.3312     1.5245    13.3666 </r>
       <r>    12.4313     1.5527    13.5221 </r>
       <r>    12.5315     1.5600    13.6783 </r>
       <r>    12.6316     1.5031    13.8289 </r>
       <r>    12.7318     1.4166    13.9707 </r>
       <r>    12.8319     1.3677    14.1077 </r>
       <r>    12.9320     1.3148    14.2394 </r>
       <r>    13.0322     1.3060    14.3702 </r>
       <r>    13.1323     1.3629    14.5066 </r>
       <r>    13.2325     1.4051    14.6473 </r>
       <r>    13.3326     1.4989    14.7975 </r>
       <r>    13.4328     1.6051    14.9582 </r>
       <r>    13.5329     1.5534    15.1138 </r>
       <r>    13.6331     1.4187    15.2558 </r>
       <r>    13.7332     1.3407    15.3901 </r>
       <r>    13.8334     1.2513    15.5154 </r>
       <r>    13.9335     1.1664    15.6322 </r>
       <r>    14.0336     1.2152    15.7539 </r>
       <r>    14.1338     1.3645    15.8906 </r>
       <r>    14.2339     1.4829    16.0391 </r>
       <r>    14.3341     1.5048    16.1898 </r>
       <r>    14.4342     1.5039    16.3404 </r>
       <r>    14.5344     1.4685    16.4875 </r>
       <r>    14.6345     1.3329    16.6209 </r>
       <r>    14.7347     1.2641    16.7475 </r>
       <r>    14.8348     1.3846    16.8862 </r>
       <r>    14.9350     1.4924    17.0357 </r>
       <r>    15.0351     1.4489    17.1808 </r>
       <r>    15.1352     1.4487    17.3258 </r>
       <r>    15.2354     1.5438    17.4804 </r>
       <r>    15.3355     1.5313    17.6338 </r>
       <r>    15.4357     1.4387    17.7779 </r>
       <r>    15.5358     1.4609    17.9242 </r>
       <r>    15.6360     1.5962    18.0840 </r>
       <r>    15.7361     1.6829    18.2526 </r>
       <r>    15.8363     1.5657    18.4094 </r>
       <r>    15.9364     1.3211    18.5417 </r>
       <r>    16.0366     1.3097    18.6728 </r>
       <r>    16.1367     1.6167    18.8347 </r>
       <r>    16.2368     1.8191    19.0169 </r>
       <r>    16.3370     1.6751    19.1847 </r>
       <r>    16.4371     1.4803    19.3329 </r>
       <r>    16.5373     1.4565    19.4788 </r>
       <r>    16.6374     1.4829    19.6273 </r>
       <r>    16.7376     1.5602    19.7835 </r>
       <r>    16.8377     1.7217    19.9560 </r>
       <r>    16.9379     1.7735    20.1336 </r>
       <r>    17.0380     1.6943    20.3032 </r>
       <r>    17.1382     1.5899    20.4625 </r>
       <r>    17.2383     1.4737    20.6100 </r>
       <r>    17.3385     1.4546    20.7557 </r>
       <r>    17.4386     1.6274    20.9187 </r>
       <r>    17.5387     1.7706    21.0960 </r>
       <r>    17.6389     1.7069    21.2669 </r>
       <r>    17.7390     1.6762    21.4348 </r>
       <r>    17.8392     1.7891    21.6140 </r>
       <r>    17.9393     1.7916    21.7934 </r>
       <r>    18.0395     1.6700    21.9606 </r>
       <r>    18.1396     1.6871    22.1296 </r>
       <r>    18.2398     1.8464    22.3145 </r>
       <r>    18.3399     1.9625    22.5110 </r>
       <r>    18.4401     1.9590    22.7072 </r>
       <r>    18.5402     1.8316    22.8907 </r>
       <r>    18.6403     1.7433    23.0652 </r>
       <r>    18.7405     1.9417    23.2597 </r>
       <r>    18.8406     2.2886    23.4889 </r>
       <r>    18.9408     2.3111    23.7203 </r>
       <r>    19.0409     1.9161    23.9122 </r>
       <r>    19.1411     1.6116    24.0736 </r>
       <r>    19.2412     1.7414    24.2480 </r>
       <r>    19.3414     2.0162    24.4499 </r>
       <r>    19.4415     2.0797    24.6582 </r>
       <r>    19.5417     1.9665    24.8551 </r>
       <r>    19.6418     1.8045    25.0358 </r>
       <r>    19.7419     1.6725    25.2033 </r>
       <r>    19.8421     1.6534    25.3689 </r>
       <r>    19.9422     1.6763    25.5368 </r>
       <r>    20.0424     1.6140    25.6984 </r>
       <r>    20.1425     1.5484    25.8535 </r>
       <r>    20.2427     1.6082    26.0145 </r>
       <r>    20.3428     1.6483    26.1796 </r>
       <r>    20.4430     1.4488    26.3247 </r>
       <r>    20.5431     1.1385    26.4387 </r>
       <r>    20.6433     0.9877    26.5376 </r>
       <r>    20.7434     1.0128    26.6391 </r>
       <r>    20.8435     1.0263    26.7418 </r>
       <r>    20.9437     0.9108    26.8330 </r>
       <r>    21.0438     0.7520    26.9084 </r>
       <r>    21.1440     0.6793    26.9764 </r>
       <r>    21.2441     0.7389    27.0504 </r>
       <r>    21.3443     0.8209    27.1326 </r>
       <r>    21.4444     0.7431    27.2070 </r>
       <r>    21.5446     0.5612    27.2632 </r>
       <r>    21.6447     0.4725    27.3105 </r>
       <r>    21.7449     0.5314    27.3638 </r>
       <r>    21.8450     0.6402    27.4279 </r>
       <r>    21.9451     0.6701    27.4950 </r>
       <r>    22.0453     0.5767    27.5527 </r>
       <r>    22.1454     0.4437    27.5972 </r>
       <r>    22.2456     0.3633    27.6335 </r>
       <r>    22.3457     0.3303    27.6666 </r>
       <r>    22.4459     0.3272    27.6994 </r>
       <r>    22.5460     0.3319    27.7326 </r>
       <r>    22.6462     0.3292    27.7656 </r>
       <r>    22.7463     0.3360    27.7992 </r>
       <r>    22.8465     0.3241    27.8317 </r>
       <r>    22.9466     0.2747    27.8592 </r>
       <r>    23.0467     0.2189    27.8811 </r>
       <r>    23.1469     0.1767    27.8988 </r>
       <r>    23.2470     0.1527    27.9141 </r>
       <r>    23.3472     0.1479    27.9289 </r>
       <r>    23.4473     0.1539    27.9443 </r>
       <r>    23.5475     0.1406    27.9584 </r>
       <r>    23.6476     0.1003    27.9685 </r>
       <r>    23.7478     0.0701    27.9755 </r>
       <r>    23.8479     0.0655    27.9820 </r>
       <r>    23.9481     0.0681    27.9889 </r>
       <r>    24.0482     0.0589    27.9948 </r>
       <r>    24.1483     0.0372    27.9985 </r>
       <r>    24.2485     0.0154    28.0000 </r>
       <r>    24.3486     0.0023    28.0003 </r>
       <r>    24.4488    -0.0014    28.0001 </r>
       <r>    24.5489    -0.0009    28.0000 </r>
       <r>    24.6491    -0.0002    28.0000 </r>
       <r>    24.7492    -0.0000    28.0000 </r>
       <r>    24.8494    -0.0000    28.0000 </r>
       <r>    24.9495    -0.0000    28.0000 </r>
       <r>    25.0497    -0.0000    28.0000 </r>
       <r>    25.1498    -0.0000    28.0000 </r>
       <r>    25.2500    -0.0000    28.0000 </r>
       <r>    25.3501    -0.0000    28.0000 </r>
       <r>    25.4502    -0.0000    28.0000 </r>
       <r>    25.5504     0.0000    28.0000 </r>
       <r>    25.6505     0.0000    28.0000 </r>
       <r>    25.7507     0.0000    28.0000 </r>
       <r>    25.8508     0.0000    28.0000 </r>
       <r>    25.9510     0.0000    28.0000 </r>
       <r>    26.0511     0.0000    28.0000 </r>
       <r>    26.1513     0.0000    28.0000 </r>
      </set>
     </set>
    </array>
   </total>
  </dos>
 </calculation>
 <structure name="finalpos" >
  <crystal>
   <varray name="basis" >
    <v>       3.66961116       0.00000000       0.00000000 </v>
    <v>      -0.00000000       3.66961116       0.00000000 </v>
    <v>       0.00000000       0.00000000       3.66961116 </v>
   </varray>
   <i name="volume">     49.41515289 </i>
   <varray name="rec_basis" >
    <v>       0.27250844       0.00000000      -0.00000000 </v>
    <v>       0.00000000       0.27250844       0.00000000 </v>
    <v>      -0.00000000      -0.00000000       0.27250844 </v>
   </varray>
  </crystal>
  <varray name="positions" >
   <v>       0.00000000       0.00000000       0.00000000 </v>
   <v>       0.00000000       0.50000000       0.50000000 </v>
   <v>       0.50000000       0.00000000       0.50000000 </v>
   <v>       0.50000000       0.50000000       0.00000000 </v>
  </varray>
 </structure>
</modeling>
