ITEM: TIMESTEP
0
ITEM: NUMBER OF ATOMS
4
ITEM: BOX BOUNDS xy xz yz pp pp pp
0.0000000000000000e+00 4.0319999997000000e+00 0.0000000000000000e+00
0.0000000000000000e+00 4.0319999997000000e+00 0.0000000000000000e+00
0.0000000000000000e+00 3.9914763580999999e+00 0.0000000000000000e+00
ITEM: ATOMS id type xs ys zs fx fy fz
1 1 0 0 0 -2.39979e-10 -2.39979e-10 -2.43183e-10
4 1 0.5 0 0.5 2.39979e-10 -2.39979e-10 2.43183e-10
2 1 0 0.5 0.5 -2.39979e-10 2.39979e-10 2.43183e-10
3 1 0.5 0.5 0 2.39979e-10 2.39979e-10 -2.43183e-10
ITEM: TIMESTEP
1
ITEM: NUMBER OF ATOMS
4
ITEM: BOX BOUNDS xy xz yz pp pp pp
0.0000000000000000e+00 4.0319999997000000e+00 0.0000000000000000e+00
0.0000000000000000e+00 4.0319999997000000e+00 0.0000000000000000e+00
0.0000000000000000e+00 3.9914763580999999e+00 0.0000000000000000e+00
ITEM: ATOMS id type xs ys zs fx fy fz
3 1 0.5 0.5 1 1.07977e-12 1.07977e-12 2.13575e-12
4 1 0.5 1 0.5 1.07976e-12 -1.0798e-12 -2.1357e-12
2 1 1 0.5 0.5 -1.07978e-12 1.07978e-12 -2.1357e-12
1 1 1 1 1 -1.07978e-12 -1.07979e-12 2.13574e-12
