 running   14 mpi-ranks, with    2 threads/rank, on    1 nodes
 distrk:  each k-point on   14 cores,    1 groups
 distr:  one band on    1 cores,   14 groups
 vasp.6.4.2 20Jul23 (build Apr 22 2024 22:35:45) complex                         
 POSCAR found type information on POSCAR Al
 POSCAR found :  1 types and       4 ions
 scaLAPACK will be used
 -----------------------------------------------------------------------------
|                                                                             |
|               ----> ADVICE to this user running VASP <----                  |
|                                                                             |
|     You have a (more or less) 'small supercell' and for smaller cells       |
|     it is recommended to use the reciprocal-space projection scheme!        |
|     The real-space optimization is not efficient for small cells and it     |
|     is also less accurate ...                                               |
|     Therefore, set LREAL=.FALSE. in the INCAR file.                         |
|                                                                             |
 -----------------------------------------------------------------------------

 LDA part: xc-table for Pade appr. of Perdew
 POSCAR, INCAR and KPOINTS ok, starting setup
 FFT: planning ... GRIDC
 FFT: planning ... GRID_SOFT
 FFT: planning ... GRID
 WAVECAR not read
 entering main loop
       N       E                     dE             d eps       ncg     rms          rms(c)
DAV:   1    -0.260357427423E+01   -0.26036E+01   -0.35492E+03  4620   0.504E+02
DAV:   2    -0.141147651569E+02   -0.11511E+02   -0.11215E+02  6622   0.428E+01
DAV:   3    -0.142048760807E+02   -0.90111E-01   -0.89600E-01  6188   0.504E+00
DAV:   4    -0.142051492994E+02   -0.27322E-03   -0.27322E-03  7574   0.285E-01
DAV:   5    -0.142051495472E+02   -0.24789E-06   -0.24790E-06  6258   0.627E-03    0.190E+00
RMM:   6    -0.141597965793E+02    0.45353E-01   -0.91825E-03  4620   0.551E-01    0.113E+00
RMM:   7    -0.141277961804E+02    0.32000E-01   -0.26825E-02  4620   0.915E-01    0.198E-01
RMM:   8    -0.141277809606E+02    0.15220E-04   -0.57652E-04  4620   0.153E-01    0.291E-02
RMM:   9    -0.141277865869E+02   -0.56263E-05   -0.10648E-04  4620   0.628E-02    0.168E-02
RMM:  10    -0.141277895038E+02   -0.29169E-05   -0.28736E-05  4620   0.395E-02    0.676E-03
RMM:  11    -0.141277835706E+02    0.59332E-05   -0.74349E-06  4620   0.163E-02    0.451E-03
RMM:  12    -0.141277844441E+02   -0.87356E-06   -0.19963E-06  3827   0.109E-02
   1 F= -.14127784E+02 E0= -.14128411E+02  d E =-.141278E+02
 curvature:   0.00 expect dE= 0.000E+00 dE for cont linesearch  0.000E+00
 trial: gam= 0.00000 g(F)=  0.451E-63 g(S)=  0.246E-31 ort = 0.000E+00 (trialstep = 0.100E+01)
 search vector abs. value=  0.100E-09
 reached required accuracy - stopping structural energy minimisation
