 vasp.6.4.2 20Jul23 (build Apr 22 2024 22:35:45) complex                         
 executed on             LinuxGNU date 2024.05.26  15:59:03
 running   14 mpi-ranks, with    2 threads/rank, on    1 nodes
 distrk:  each k-point on   14 cores,    1 groups
 distr:  one band on NCORE=   1 cores,   14 groups


--------------------------------------------------------------------------------------------------------


 INCAR:
   ALGO = Fast
   EDIFF = 1e-06
   ENCUT = 400
   IBRION = 2
   ISIF = 4
   ISMEAR = 1
   KSPACING = 0.08
   LCHARG = False
   LREAL = Auto
   LWAVE = False
   NELM = 60
   NELMIN = 4
   NSW = 100
   PREC = Accurate
   SIGMA = 0.2
   SYSTEM = Al fcc relaxation

 POTCAR:    PAW_PBE Al 04Jan2001                  
 POTCAR:    PAW_PBE Al 04Jan2001                  
   SHA256 =  17880443556af62b473fe41b62a467bd001ad55d2cabe504a3f22e34d4e9db96 Al/POTCAR             
   COPYR  = (c) Copyright 04Jan2001 Georg Kresse                                                    
   COPYR  = This file is part of the software VASP. Any use, copying, and all other rights are regul
   COPYR  = If you do not have a valid VASP license, you may not use, copy or distribute this file. 
   VRHFIN =Al: s2p1                                                                                 
   LEXCH  = PE                                                                                      
   EATOM  =    53.5387 eV,    3.9350 Ry                                                             
                                                                                                    
   TITEL  = PAW_PBE Al 04Jan2001                                                                    
   LULTRA =        F    use ultrasoft PP ?                                                          
   IUNSCR =        1    unscreen: 0-lin 1-nonlin 2-no                                               
   RPACOR =    1.500    partial core radius                                                         
   POMASS =   26.981; ZVAL   =    3.000    mass and valenz                                          
   RCORE  =    1.900    outmost cutoff radius                                                       
   RWIGS  =    2.650; RWIGS  =    1.402    wigner-seitz radius (au A)                               
   ENMAX  =  240.300; ENMIN  =  180.225 eV                                                          
   ICORE  =        2    local potential                                                             
   LCOR   =        T    correct aug charges                                                         
   LPAW   =        T    paw PP                                                                      
   EAUG   =  291.052                                                                                
   DEXC   =    0.000                                                                                
   RMAX   =    1.939    core radius for proj-oper                                                   
   RAUG   =    1.300    factor for augmentation sphere                                              
   RDEP   =    1.966    radius for radial grids                                                     
   RDEPT  =    1.856    core radius for aug-charge                                                  
                                                                                                    
   Atomic configuration                                                                             
    6 entries                                                                                       
     n  l   j            E        occ.                                                              
     1  0  0.50     -1511.1048   2.0000                                                             
     2  0  0.50      -108.1629   2.0000                                                             
     2  1  1.50       -69.6402   6.0000                                                             
     3  0  0.50        -7.7528   2.0000                                                             
     3  1  1.50        -2.7121   1.0000                                                             
     3  2  2.50        -2.7212   0.0000                                                             
   Description                                                                                      
     l       E           TYP  RCUT    TYP  RCUT                                                     
     0     -7.7528455     23  1.900                                                                 
     0     -3.3096929     23  1.900                                                                 
     1     -2.7120682     23  1.900                                                                 
     1     13.6058260     23  1.900                                                                 
     2     -2.7211652      7  1.900                                                                 
  local pseudopotential read in
  partial core-charges read in
  partial kinetic energy density read in
  atomic valenz-charges read in
  non local Contribution for L=           0  read in
    real space projection operators read in
  non local Contribution for L=           0  read in
    real space projection operators read in
  non local Contribution for L=           1  read in
    real space projection operators read in
  non local Contribution for L=           1  read in
    real space projection operators read in
    PAW grid and wavefunctions read in

   number of l-projection  operators is LMAX  =           4
   number of lm-projection operators is LMMAX =           8

 -----------------------------------------------------------------------------
|                                                                             |
|               ----> ADVICE to this user running VASP <----                  |
|                                                                             |
|     You have a (more or less) 'small supercell' and for smaller cells       |
|     it is recommended to use the reciprocal-space projection scheme!        |
|     The real-space optimization is not efficient for small cells and it     |
|     is also less accurate ...                                               |
|     Therefore, set LREAL=.FALSE. in the INCAR file.                         |
|                                                                             |
 -----------------------------------------------------------------------------

 Optimization of the real space projectors (new method)

 maximal supplied QI-value         = 19.84
 optimisation between [QCUT,QGAM] = [ 10.12, 20.44] = [ 28.68,116.96] Ry 
 Optimized for a Real-space Cutoff    1.38 Angstroem

   l    n(q)    QCUT    max X(q) W(low)/X(q) W(high)/X(q)  e(spline) 
   0      8    10.119   176.870    0.39E-04    0.93E-04    0.54E-07
   0      8    10.119   105.762    0.37E-04    0.91E-04    0.53E-07
   1      8    10.119    55.370    0.18E-03    0.13E-03    0.19E-06
   1      8    10.119    20.208    0.17E-03    0.12E-03    0.18E-06
  PAW_PBE Al 04Jan2001                  :
 energy of atom  1       EATOM=  -53.5387
 kinetic energy error for atom=    0.0005 (will be added to EATOM!!)


 POSCAR: Al4
  positions in direct lattice
  velocities in cartesian coordinates
 exchange correlation table for  LEXCH =        8
   RHO(1)=    0.500       N(1)  =     2000
   RHO(2)=  100.500       N(2)  =     4000



--------------------------------------------------------------------------------------------------------


 ion  position               nearest neighbor table
   1  0.000  0.000  0.000-   2 3.12   3 3.12   4 3.12   2 3.12   3 3.12   2 3.12   4 3.12   2 3.12
                             3 3.12   4 3.12   3 3.12   4 3.12
   2  0.000  0.500  0.500-   1 3.12   3 3.12   4 3.12   1 3.12   4 3.12   1 3.12   3 3.12   1 3.12
                             3 3.12   4 3.12   4 3.12   3 3.12
   3  0.500  0.000  0.500-   1 3.12   2 3.12   4 3.12   1 3.12   4 3.12   2 3.12   4 3.12   4 3.12
                             1 3.12   2 3.12   1 3.12   2 3.12
   4  0.500  0.500  0.000-   1 3.12   2 3.12   3 3.12   2 3.12   3 3.12   1 3.12   3 3.12   3 3.12
                             1 3.12   2 3.12   2 3.12   1 3.12

  LATTYP: Found a simple cubic cell.
 ALAT       =     4.4080591223
  
  Lattice vectors:
  
 A1 = (   4.4080591223,   0.0000000000,   0.0000000000)
 A2 = (  -0.0000000000,   4.4080591223,   0.0000000000)
 A3 = (   0.0000000000,   0.0000000000,   4.4080591223)


Analysis of symmetry for initial positions (statically):
=====================================================================
 Subroutine PRICEL returns following result:
 
  LATTYP: Found a face centered cubic cell.
 ALAT       =     4.4080591223
  
  Lattice vectors:
  
 A1 = (   2.2040295612,  -2.2040295612,   0.0000000000)
 A2 = (   2.2040295612,   0.0000000000,   2.2040295612)
 A3 = (   0.0000000000,  -2.2040295612,   2.2040295612)
 
   4 primitive cells build up your supercell.
 

 Routine SETGRP: Setting up the symmetry group for a 
 simple cubic supercell.


 Subroutine GETGRP returns: Found 48 space group operations
 (whereof 48 operations were pure point group operations)
 out of a pool of 48 trial point group operations.


The static configuration has the point symmetry O_h .


Analysis of symmetry for dynamics (positions and initial velocities):
=====================================================================
 Subroutine PRICEL returns following result:
 
  LATTYP: Found a face centered cubic cell.
 ALAT       =     4.4080591223
  
  Lattice vectors:
  
 A1 = (   2.2040295612,  -2.2040295612,   0.0000000000)
 A2 = (   2.2040295612,   0.0000000000,   2.2040295612)
 A3 = (   0.0000000000,  -2.2040295612,   2.2040295612)
 
   4 primitive cells build up your supercell.
 

 Routine SETGRP: Setting up the symmetry group for a 
 simple cubic supercell.


 Subroutine GETGRP returns: Found 48 space group operations
 (whereof 48 operations were pure point group operations)
 out of a pool of 48 trial point group operations.


The dynamic configuration has the point symmetry O_h .


 Subroutine INISYM returns: Found 48 space group operations
 (whereof 48 operations are pure point group operations),
 and found     4 'primitive' translations


----------------------------------------------------------------------------------------

                                     Primitive cell                                     

  volume of cell :      21.4132

  direct lattice vectors                    reciprocal lattice vectors
     2.204029561 -2.204029561  0.000000000     0.226857211 -0.226857211 -0.226857211
     2.204029561  0.000000000  2.204029561     0.226857211  0.226857211  0.226857211
     0.000000000 -2.204029561  2.204029561    -0.226857211 -0.226857211  0.226857211

  length of vectors
     3.116968497  3.116968497  3.116968497     0.392928216  0.392928216  0.392928216

  position of ions in fractional coordinates (direct lattice)
     0.000000000  0.000000000  0.000000000

  ion indices of the primitive-cell ions
   primitive index   ion index
                 1           1

----------------------------------------------------------------------------------------



 KPOINTS: Automatic kpoint scheme                 

Automatic generation of k-mesh.
 Grid dimensions read from file:
 generate k-points for:   18   18   18

 Generating k-lattice:

  Cartesian coordinates                     Fractional coordinates (reciprocal lattice)
     0.012603178  0.000000000 -0.000000000     0.055555556  0.000000000  0.000000000
     0.000000000  0.012603178  0.000000000     0.000000000  0.055555556  0.000000000
    -0.000000000 -0.000000000  0.012603178    -0.000000000 -0.000000000  0.055555556

  Length of vectors
     0.012603178  0.012603178  0.012603178

  Shift w.r.t. Gamma in fractional coordinates (k-lattice)
     0.500000000  0.500000000  0.500000000

 
 Subroutine IBZKPT returns following result:
 ===========================================
 
 Found    165 irreducible k-points:
 
 Following reciprocal coordinates:
            Coordinates               Weight
  0.027778  0.027778  0.027778      8.000000
  0.083333  0.027778  0.027778     24.000000
  0.138889  0.027778  0.027778     24.000000
  0.194444  0.027778  0.027778     24.000000
  0.250000  0.027778  0.027778     24.000000
  0.305556  0.027778  0.027778     24.000000
  0.361111  0.027778  0.027778     24.000000
  0.416667  0.027778  0.027778     24.000000
  0.472222  0.027778  0.027778     24.000000
  0.083333  0.083333  0.027778     24.000000
  0.138889  0.083333  0.027778     48.000000
  0.194444  0.083333  0.027778     48.000000
  0.250000  0.083333  0.027778     48.000000
  0.305556  0.083333  0.027778     48.000000
  0.361111  0.083333  0.027778     48.000000
  0.416667  0.083333  0.027778     48.000000
  0.472222  0.083333  0.027778     48.000000
  0.138889  0.138889  0.027778     24.000000
  0.194444  0.138889  0.027778     48.000000
  0.250000  0.138889  0.027778     48.000000
  0.305556  0.138889  0.027778     48.000000
  0.361111  0.138889  0.027778     48.000000
  0.416667  0.138889  0.027778     48.000000
  0.472222  0.138889  0.027778     48.000000
  0.194444  0.194444  0.027778     24.000000
  0.250000  0.194444  0.027778     48.000000
  0.305556  0.194444  0.027778     48.000000
  0.361111  0.194444  0.027778     48.000000
  0.416667  0.194444  0.027778     48.000000
  0.472222  0.194444  0.027778     48.000000
  0.250000  0.250000  0.027778     24.000000
  0.305556  0.250000  0.027778     48.000000
  0.361111  0.250000  0.027778     48.000000
  0.416667  0.250000  0.027778     48.000000
  0.472222  0.250000  0.027778     48.000000
  0.305556  0.305556  0.027778     24.000000
  0.361111  0.305556  0.027778     48.000000
  0.416667  0.305556  0.027778     48.000000
  0.472222  0.305556  0.027778     48.000000
  0.361111  0.361111  0.027778     24.000000
  0.416667  0.361111  0.027778     48.000000
  0.472222  0.361111  0.027778     48.000000
  0.416667  0.416667  0.027778     24.000000
  0.472222  0.416667  0.027778     48.000000
  0.472222  0.472222  0.027778     24.000000
  0.083333  0.083333  0.083333      8.000000
  0.138889  0.083333  0.083333     24.000000
  0.194444  0.083333  0.083333     24.000000
  0.250000  0.083333  0.083333     24.000000
  0.305556  0.083333  0.083333     24.000000
  0.361111  0.083333  0.083333     24.000000
  0.416667  0.083333  0.083333     24.000000
  0.472222  0.083333  0.083333     24.000000
  0.138889  0.138889  0.083333     24.000000
  0.194444  0.138889  0.083333     48.000000
  0.250000  0.138889  0.083333     48.000000
  0.305556  0.138889  0.083333     48.000000
  0.361111  0.138889  0.083333     48.000000
  0.416667  0.138889  0.083333     48.000000
  0.472222  0.138889  0.083333     48.000000
  0.194444  0.194444  0.083333     24.000000
  0.250000  0.194444  0.083333     48.000000
  0.305556  0.194444  0.083333     48.000000
  0.361111  0.194444  0.083333     48.000000
  0.416667  0.194444  0.083333     48.000000
  0.472222  0.194444  0.083333     48.000000
  0.250000  0.250000  0.083333     24.000000
  0.305556  0.250000  0.083333     48.000000
  0.361111  0.250000  0.083333     48.000000
  0.416667  0.250000  0.083333     48.000000
  0.472222  0.250000  0.083333     48.000000
  0.305556  0.305556  0.083333     24.000000
  0.361111  0.305556  0.083333     48.000000
  0.416667  0.305556  0.083333     48.000000
  0.472222  0.305556  0.083333     48.000000
  0.361111  0.361111  0.083333     24.000000
  0.416667  0.361111  0.083333     48.000000
  0.472222  0.361111  0.083333     48.000000
  0.416667  0.416667  0.083333     24.000000
  0.472222  0.416667  0.083333     48.000000
  0.472222  0.472222  0.083333     24.000000
  0.138889  0.138889  0.138889      8.000000
  0.194444  0.138889  0.138889     24.000000
  0.250000  0.138889  0.138889     24.000000
  0.305556  0.138889  0.138889     24.000000
  0.361111  0.138889  0.138889     24.000000
  0.416667  0.138889  0.138889     24.000000
  0.472222  0.138889  0.138889     24.000000
  0.194444  0.194444  0.138889     24.000000
  0.250000  0.194444  0.138889     48.000000
  0.305556  0.194444  0.138889     48.000000
  0.361111  0.194444  0.138889     48.000000
  0.416667  0.194444  0.138889     48.000000
  0.472222  0.194444  0.138889     48.000000
  0.250000  0.250000  0.138889     24.000000
  0.305556  0.250000  0.138889     48.000000
  0.361111  0.250000  0.138889     48.000000
  0.416667  0.250000  0.138889     48.000000
  0.472222  0.250000  0.138889     48.000000
  0.305556  0.305556  0.138889     24.000000
  0.361111  0.305556  0.138889     48.000000
  0.416667  0.305556  0.138889     48.000000
  0.472222  0.305556  0.138889     48.000000
  0.361111  0.361111  0.138889     24.000000
  0.416667  0.361111  0.138889     48.000000
  0.472222  0.361111  0.138889     48.000000
  0.416667  0.416667  0.138889     24.000000
  0.472222  0.416667  0.138889     48.000000
  0.472222  0.472222  0.138889     24.000000
  0.194444  0.194444  0.194444      8.000000
  0.250000  0.194444  0.194444     24.000000
  0.305556  0.194444  0.194444     24.000000
  0.361111  0.194444  0.194444     24.000000
  0.416667  0.194444  0.194444     24.000000
  0.472222  0.194444  0.194444     24.000000
  0.250000  0.250000  0.194444     24.000000
  0.305556  0.250000  0.194444     48.000000
  0.361111  0.250000  0.194444     48.000000
  0.416667  0.250000  0.194444     48.000000
  0.472222  0.250000  0.194444     48.000000
  0.305556  0.305556  0.194444     24.000000
  0.361111  0.305556  0.194444     48.000000
  0.416667  0.305556  0.194444     48.000000
  0.472222  0.305556  0.194444     48.000000
  0.361111  0.361111  0.194444     24.000000
  0.416667  0.361111  0.194444     48.000000
  0.472222  0.361111  0.194444     48.000000
  0.416667  0.416667  0.194444     24.000000
  0.472222  0.416667  0.194444     48.000000
  0.472222  0.472222  0.194444     24.000000
  0.250000  0.250000  0.250000      8.000000
  0.305556  0.250000  0.250000     24.000000
  0.361111  0.250000  0.250000     24.000000
  0.416667  0.250000  0.250000     24.000000
  0.472222  0.250000  0.250000     24.000000
  0.305556  0.305556  0.250000     24.000000
  0.361111  0.305556  0.250000     48.000000
  0.416667  0.305556  0.250000     48.000000
  0.472222  0.305556  0.250000     48.000000
  0.361111  0.361111  0.250000     24.000000
  0.416667  0.361111  0.250000     48.000000
  0.472222  0.361111  0.250000     48.000000
  0.416667  0.416667  0.250000     24.000000
  0.472222  0.416667  0.250000     48.000000
  0.472222  0.472222  0.250000     24.000000
  0.305556  0.305556  0.305556      8.000000
  0.361111  0.305556  0.305556     24.000000
  0.416667  0.305556  0.305556     24.000000
  0.472222  0.305556  0.305556     24.000000
  0.361111  0.361111  0.305556     24.000000
  0.416667  0.361111  0.305556     48.000000
  0.472222  0.361111  0.305556     48.000000
  0.416667  0.416667  0.305556     24.000000
  0.472222  0.416667  0.305556     48.000000
  0.472222  0.472222  0.305556     24.000000
  0.361111  0.361111  0.361111      8.000000
  0.416667  0.361111  0.361111     24.000000
  0.472222  0.361111  0.361111     24.000000
  0.416667  0.416667  0.361111     24.000000
  0.472222  0.416667  0.361111     48.000000
  0.472222  0.472222  0.361111     24.000000
  0.416667  0.416667  0.416667      8.000000
  0.472222  0.416667  0.416667     24.000000
  0.472222  0.472222  0.416667     24.000000
  0.472222  0.472222  0.472222      8.000000
 
 Following cartesian coordinates:
            Coordinates               Weight
  0.006878  0.006878  0.006878      8.000000
  0.020633  0.006878  0.006878     24.000000
  0.034388  0.006878  0.006878     24.000000
  0.048143  0.006878  0.006878     24.000000
  0.061898  0.006878  0.006878     24.000000
  0.075653  0.006878  0.006878     24.000000
  0.089408  0.006878  0.006878     24.000000
  0.103163  0.006878  0.006878     24.000000
  0.116918  0.006878  0.006878     24.000000
  0.020633  0.020633  0.006878     24.000000
  0.034388  0.020633  0.006878     48.000000
  0.048143  0.020633  0.006878     48.000000
  0.061898  0.020633  0.006878     48.000000
  0.075653  0.020633  0.006878     48.000000
  0.089408  0.020633  0.006878     48.000000
  0.103163  0.020633  0.006878     48.000000
  0.116918  0.020633  0.006878     48.000000
  0.034388  0.034388  0.006878     24.000000
  0.048143  0.034388  0.006878     48.000000
  0.061898  0.034388  0.006878     48.000000
  0.075653  0.034388  0.006878     48.000000
  0.089408  0.034388  0.006878     48.000000
  0.103163  0.034388  0.006878     48.000000
  0.116918  0.034388  0.006878     48.000000
  0.048143  0.048143  0.006878     24.000000
  0.061898  0.048143  0.006878     48.000000
  0.075653  0.048143  0.006878     48.000000
  0.089408  0.048143  0.006878     48.000000
  0.103163  0.048143  0.006878     48.000000
  0.116918  0.048143  0.006878     48.000000
  0.061898  0.061898  0.006878     24.000000
  0.075653  0.061898  0.006878     48.000000
  0.089408  0.061898  0.006878     48.000000
  0.103163  0.061898  0.006878     48.000000
  0.116918  0.061898  0.006878     48.000000
  0.075653  0.075653  0.006878     24.000000
  0.089408  0.075653  0.006878     48.000000
  0.103163  0.075653  0.006878     48.000000
  0.116918  0.075653  0.006878     48.000000
  0.089408  0.089408  0.006878     24.000000
  0.103163  0.089408  0.006878     48.000000
  0.116918  0.089408  0.006878     48.000000
  0.103163  0.103163  0.006878     24.000000
  0.116918  0.103163  0.006878     48.000000
  0.116918  0.116918  0.006878     24.000000
  0.020633  0.020633  0.020633      8.000000
  0.034388  0.020633  0.020633     24.000000
  0.048143  0.020633  0.020633     24.000000
  0.061898  0.020633  0.020633     24.000000
  0.075653  0.020633  0.020633     24.000000
  0.089408  0.020633  0.020633     24.000000
  0.103163  0.020633  0.020633     24.000000
  0.116918  0.020633  0.020633     24.000000
  0.034388  0.034388  0.020633     24.000000
  0.048143  0.034388  0.020633     48.000000
  0.061898  0.034388  0.020633     48.000000
  0.075653  0.034388  0.020633     48.000000
  0.089408  0.034388  0.020633     48.000000
  0.103163  0.034388  0.020633     48.000000
  0.116918  0.034388  0.020633     48.000000
  0.048143  0.048143  0.020633     24.000000
  0.061898  0.048143  0.020633     48.000000
  0.075653  0.048143  0.020633     48.000000
  0.089408  0.048143  0.020633     48.000000
  0.103163  0.048143  0.020633     48.000000
  0.116918  0.048143  0.020633     48.000000
  0.061898  0.061898  0.020633     24.000000
  0.075653  0.061898  0.020633     48.000000
  0.089408  0.061898  0.020633     48.000000
  0.103163  0.061898  0.020633     48.000000
  0.116918  0.061898  0.020633     48.000000
  0.075653  0.075653  0.020633     24.000000
  0.089408  0.075653  0.020633     48.000000
  0.103163  0.075653  0.020633     48.000000
  0.116918  0.075653  0.020633     48.000000
  0.089408  0.089408  0.020633     24.000000
  0.103163  0.089408  0.020633     48.000000
  0.116918  0.089408  0.020633     48.000000
  0.103163  0.103163  0.020633     24.000000
  0.116918  0.103163  0.020633     48.000000
  0.116918  0.116918  0.020633     24.000000
  0.034388  0.034388  0.034388      8.000000
  0.048143  0.034388  0.034388     24.000000
  0.061898  0.034388  0.034388     24.000000
  0.075653  0.034388  0.034388     24.000000
  0.089408  0.034388  0.034388     24.000000
  0.103163  0.034388  0.034388     24.000000
  0.116918  0.034388  0.034388     24.000000
  0.048143  0.048143  0.034388     24.000000
  0.061898  0.048143  0.034388     48.000000
  0.075653  0.048143  0.034388     48.000000
  0.089408  0.048143  0.034388     48.000000
  0.103163  0.048143  0.034388     48.000000
  0.116918  0.048143  0.034388     48.000000
  0.061898  0.061898  0.034388     24.000000
  0.075653  0.061898  0.034388     48.000000
  0.089408  0.061898  0.034388     48.000000
  0.103163  0.061898  0.034388     48.000000
  0.116918  0.061898  0.034388     48.000000
  0.075653  0.075653  0.034388     24.000000
  0.089408  0.075653  0.034388     48.000000
  0.103163  0.075653  0.034388     48.000000
  0.116918  0.075653  0.034388     48.000000
  0.089408  0.089408  0.034388     24.000000
  0.103163  0.089408  0.034388     48.000000
  0.116918  0.089408  0.034388     48.000000
  0.103163  0.103163  0.034388     24.000000
  0.116918  0.103163  0.034388     48.000000
  0.116918  0.116918  0.034388     24.000000
  0.048143  0.048143  0.048143      8.000000
  0.061898  0.048143  0.048143     24.000000
  0.075653  0.048143  0.048143     24.000000
  0.089408  0.048143  0.048143     24.000000
  0.103163  0.048143  0.048143     24.000000
  0.116918  0.048143  0.048143     24.000000
  0.061898  0.061898  0.048143     24.000000
  0.075653  0.061898  0.048143     48.000000
  0.089408  0.061898  0.048143     48.000000
  0.103163  0.061898  0.048143     48.000000
  0.116918  0.061898  0.048143     48.000000
  0.075653  0.075653  0.048143     24.000000
  0.089408  0.075653  0.048143     48.000000
  0.103163  0.075653  0.048143     48.000000
  0.116918  0.075653  0.048143     48.000000
  0.089408  0.089408  0.048143     24.000000
  0.103163  0.089408  0.048143     48.000000
  0.116918  0.089408  0.048143     48.000000
  0.103163  0.103163  0.048143     24.000000
  0.116918  0.103163  0.048143     48.000000
  0.116918  0.116918  0.048143     24.000000
  0.061898  0.061898  0.061898      8.000000
  0.075653  0.061898  0.061898     24.000000
  0.089408  0.061898  0.061898     24.000000
  0.103163  0.061898  0.061898     24.000000
  0.116918  0.061898  0.061898     24.000000
  0.075653  0.075653  0.061898     24.000000
  0.089408  0.075653  0.061898     48.000000
  0.103163  0.075653  0.061898     48.000000
  0.116918  0.075653  0.061898     48.000000
  0.089408  0.089408  0.061898     24.000000
  0.103163  0.089408  0.061898     48.000000
  0.116918  0.089408  0.061898     48.000000
  0.103163  0.103163  0.061898     24.000000
  0.116918  0.103163  0.061898     48.000000
  0.116918  0.116918  0.061898     24.000000
  0.075653  0.075653  0.075653      8.000000
  0.089408  0.075653  0.075653     24.000000
  0.103163  0.075653  0.075653     24.000000
  0.116918  0.075653  0.075653     24.000000
  0.089408  0.089408  0.075653     24.000000
  0.103163  0.089408  0.075653     48.000000
  0.116918  0.089408  0.075653     48.000000
  0.103163  0.103163  0.075653     24.000000
  0.116918  0.103163  0.075653     48.000000
  0.116918  0.116918  0.075653     24.000000
  0.089408  0.089408  0.089408      8.000000
  0.103163  0.089408  0.089408     24.000000
  0.116918  0.089408  0.089408     24.000000
  0.103163  0.103163  0.089408     24.000000
  0.116918  0.103163  0.089408     48.000000
  0.116918  0.116918  0.089408     24.000000
  0.103163  0.103163  0.103163      8.000000
  0.116918  0.103163  0.103163     24.000000
  0.116918  0.116918  0.103163     24.000000
  0.116918  0.116918  0.116918      8.000000
 


--------------------------------------------------------------------------------------------------------




 Dimension of arrays:
   k-points           NKPTS =    165   k-points in BZ     NKDIM =    165   number of bands    NBANDS=     14
   number of dos      NEDOS =    301   number of ions     NIONS =      4
   non local maximal  LDIM  =      4   non local SUM 2l+1 LMDIM =      8
   total plane-waves  NPLWV =  27000
   max r-space proj   IRMAX =   3524   max aug-charges    IRDMAX=  12467
   dimension x,y,z NGX =    30 NGY =   30 NGZ =   30
   dimension x,y,z NGXF=    60 NGYF=   60 NGZF=   60
   support grid    NGXF=    60 NGYF=   60 NGZF=   60
   ions per type =               4
   NGX,Y,Z   is equivalent  to a cutoff of  11.31, 11.31, 11.31 a.u.
   NGXF,Y,Z  is equivalent  to a cutoff of  22.63, 22.63, 22.63 a.u.

 SYSTEM =  Al fcc relaxation                       
 POSCAR =  Al4                                     

 Startparameter for this run:
   NWRITE =      2    write-flag & timer
   PREC   = accura    normal or accurate (medium, high low for compatibility)
   ISTART =      0    job   : 0-new  1-cont  2-samecut
   ICHARG =      2    charge: 1-file 2-atom 10-const
   ISPIN  =      1    spin polarized calculation?
   LNONCOLLINEAR =      F non collinear calculations
   LSORBIT =      F    spin-orbit coupling
   INIWAV =      1    electr: 0-lowe 1-rand  2-diag
   LASPH  =      F    aspherical Exc in radial PAW
 Electronic Relaxation 1
   ENCUT  =  400.0 eV  29.40 Ry    5.42 a.u.   7.19  7.19  7.19*2*pi/ulx,y,z
   ENINI  =  400.0     initial cutoff
   ENAUG  =  291.1 eV  augmentation charge cutoff
   NELM   =     60;   NELMIN=  4; NELMDL= -5     # of ELM steps 
   EDIFF  = 0.1E-05   stopping-criterion for ELM
   LREAL  =      T    real-space projection
   NLSPLINE    = F    spline interpolate recip. space projectors
   LCOMPAT=      F    compatible to vasp.4.4
   GGA_COMPAT  = T    GGA compatible to vasp.4.4-vasp.4.6
   LMAXPAW     = -100 max onsite density
   LMAXMIX     =    2 max onsite mixed and CHGCAR
   VOSKOWN=      0    Vosko Wilk Nusair interpolation
   ROPT   =   -0.00025
 Ionic relaxation
   EDIFFG = 0.1E-04   stopping-criterion for IOM
   NSW    =    100    number of steps for IOM
   NBLOCK =      1;   KBLOCK =    100    inner block; outer block 
   IBRION =      2    ionic relax: 0-MD 1-quasi-New 2-CG
   NFREE  =      1    steps in history (QN), initial steepest desc. (CG)
   ISIF   =      4    stress and relaxation
   IWAVPR =     11    prediction:  0-non 1-charg 2-wave 3-comb
   ISYM   =      2    0-nonsym 1-usesym 2-fastsym
   LCORR  =      T    Harris-Foulkes like correction to forces

   POTIM  = 0.5000    time-step for ionic-motion
   TEIN   =    0.0    initial temperature
   TEBEG  =    0.0;   TEEND  =   0.0 temperature during run
   SMASS  =  -3.00    Nose mass-parameter (am)
   estimated Nose-frequenzy (Omega)   =  0.10E-29 period in steps = 0.13E+47 mass=  -0.444E-27a.u.
   SCALEE = 1.0000    scale energy and forces
   NPACO  =    256;   APACO  = 10.0  distance and # of slots for P.C.
   PSTRESS=    0.0 pullay stress

  Mass of Ions in am
   POMASS =  26.98
  Ionic Valenz
   ZVAL   =   3.00
  Atomic Wigner-Seitz radii
   RWIGS  =  -1.00
  virtual crystal weights 
   VCA    =   1.00
   NELECT =      12.0000    total number of electrons
   NUPDOWN=      -1.0000    fix difference up-down

 DOS related values:
   EMIN   =  10.00;   EMAX   =-10.00  energy-range for DOS
   EFERMI =   0.00;   METHOD = LEGACY      
   ISMEAR =     1;   SIGMA  =   0.20  broadening in eV -4-tet -1-fermi 0-gaus

 Electronic relaxation 2 (details)
   IALGO  =     68    algorithm
   LDIAG  =      T    sub-space diagonalisation (order eigenvalues)
   LSUBROT=      F    optimize rotation matrix (better conditioning)
   TURBO    =      0    0=normal 1=particle mesh
   IRESTART =      0    0=no restart 2=restart with 2 vectors
   NREBOOT  =      0    no. of reboots
   NMIN     =      0    reboot dimension
   EREF     =   0.00    reference energy to select bands
   IMIX   =      4    mixing-type and parameters
     AMIX     =   0.40;   BMIX     =  1.00
     AMIX_MAG =   1.60;   BMIX_MAG =  1.00
     AMIN     =   0.10
     WC   =   100.;   INIMIX=   1;  MIXPRE=   1;  MAXMIX= -45

 Intra band minimization:
   WEIMIN = 0.0010     energy-eigenvalue tresh-hold
   EBREAK =  0.18E-07  absolut break condition
   DEPER  =   0.30     relativ break condition  

   TIME   =   0.40     timestep for ELM

  volume/ion in A,a.u.               =      21.41       144.50
  Fermi-wavevector in a.u.,A,eV,Ry     =   0.850265  1.606769  9.836349  0.722951
  Thomas-Fermi vector in A             =   1.966216

 Write flags
   LWAVE        =      F    write WAVECAR
   LDOWNSAMPLE  =      F    k-point downsampling of WAVECAR
   LCHARG       =      F    write CHGCAR
   LVTOT        =      F    write LOCPOT, total local potential
   LVHAR        =      F    write LOCPOT, Hartree potential only
   LELF         =      F    write electronic localiz. function (ELF)
   LORBIT       =      0    0 simple, 1 ext, 2 COOP (PROOUT), +10 PAW based schemes


 Dipole corrections
   LMONO  =      F    monopole corrections only (constant potential shift)
   LDIPOL =      F    correct potential (dipole corrections)
   IDIPOL =      0    1-x, 2-y, 3-z, 4-all directions 
   EPSILON=  1.0000000 bulk dielectric constant

 Exchange correlation treatment:
   GGA     =    --    GGA type
   LEXCH   =     8    internal setting for exchange type
   LIBXC   =     F    Libxc                    
   VOSKOWN =     0    Vosko Wilk Nusair interpolation
   LHFCALC =     F    Hartree Fock is set to
   LHFONE  =     F    Hartree Fock one center treatment
   AEXX    =    0.0000 exact exchange contribution

 Linear response parameters
   LEPSILON=     F    determine dielectric tensor
   LRPA    =     F    only Hartree local field effects (RPA)
   LNABLA  =     F    use nabla operator in PAW spheres
   LVEL    =     F    velocity operator in full k-point grid
   CSHIFT  =0.1000    complex shift for real part using Kramers Kronig
   OMEGAMAX=  -1.0    maximum frequency
   DEG_THRESHOLD= 0.2000000E-02 threshold for treating states as degnerate
   RTIME   =   -0.100 relaxation time in fs
  (WPLASMAI=    0.000 imaginary part of plasma frequency in eV, 0.658/RTIME)
   DFIELD  = 0.0000000 0.0000000 0.0000000 field for delta impulse in time

  Optional k-point grid parameters
   LKPOINTS_OPT  =     F    use optional k-point grid
   KPOINTS_OPT_MODE=     1    mode for optional k-point grid

 Orbital magnetization related:
   ORBITALMAG=     F  switch on orbital magnetization
   LCHIMAG   =     F  perturbation theory with respect to B field
   DQ        =  0.001000  dq finite difference perturbation B field
   LLRAUG    =     F  two centre corrections for induced B field
   LBONE     =     F  B-component reconstruction in AE one-centre
   LVGVCALC  =     T  calculate vGv susceptibility
   LVGVAPPL  =     F  apply vGv susceptibility instead of pGv for G=0

 Random number generation:
   RANDOM_GENERATOR = DEFAULT
   PCG_SEED         = not used


--------------------------------------------------------------------------------------------------------


 conjugate gradient relaxation of ions
 charge density and potential will be updated during run
 non-spin polarized calculation
 RMM-DIIS sequential band-by-band and
  variant of blocked Davidson during initial phase
 perform sub-space diagonalisation
    before iterative eigenvector-optimisation
 modified Broyden-mixing scheme, WC =      100.0
 initial mixing is a Kerker type mixing with AMIX =  0.4000 and BMIX =      1.0000
 Hartree-type preconditioning will be used
 using additional bands            8
 real space projection scheme for non local part
 use partial core corrections
 calculate Harris-corrections to forces   (improved forces if not selfconsistent)
 use gradient corrections 
 use of overlap-Matrix (Vanderbilt PP)
 Methfessel and Paxton  Order N= 1 SIGMA  =   0.20


--------------------------------------------------------------------------------------------------------


  energy-cutoff  :      400.00
  volume of cell :       85.65
      direct lattice vectors                 reciprocal lattice vectors
     4.408059122  0.000000000  0.000000000     0.226857211  0.000000000 -0.000000000
    -0.000000000  4.408059122  0.000000000     0.000000000  0.226857211  0.000000000
     0.000000000  0.000000000  4.408059122    -0.000000000 -0.000000000  0.226857211

  length of vectors
     4.408059122  4.408059122  4.408059122     0.226857211  0.226857211  0.226857211



 k-points in units of 2pi/SCALE and weight: Automatic kpoint scheme                 
   0.00687751  0.00687751  0.00687751       0.001
   0.02063253  0.00687751  0.00687751       0.004
   0.03438755  0.00687751  0.00687751       0.004
   0.04814257  0.00687751  0.00687751       0.004
   0.06189759  0.00687751  0.00687751       0.004
   0.07565261  0.00687751  0.00687751       0.004
   0.08940762  0.00687751  0.00687751       0.004
   0.10316264  0.00687751  0.00687751       0.004
   0.11691766  0.00687751  0.00687751       0.004
   0.02063253  0.02063253  0.00687751       0.004
   0.03438755  0.02063253  0.00687751       0.008
   0.04814257  0.02063253  0.00687751       0.008
   0.06189759  0.02063253  0.00687751       0.008
   0.07565261  0.02063253  0.00687751       0.008
   0.08940762  0.02063253  0.00687751       0.008
   0.10316264  0.02063253  0.00687751       0.008
   0.11691766  0.02063253  0.00687751       0.008
   0.03438755  0.03438755  0.00687751       0.004
   0.04814257  0.03438755  0.00687751       0.008
   0.06189759  0.03438755  0.00687751       0.008
   0.07565261  0.03438755  0.00687751       0.008
   0.08940762  0.03438755  0.00687751       0.008
   0.10316264  0.03438755  0.00687751       0.008
   0.11691766  0.03438755  0.00687751       0.008
   0.04814257  0.04814257  0.00687751       0.004
   0.06189759  0.04814257  0.00687751       0.008
   0.07565261  0.04814257  0.00687751       0.008
   0.08940762  0.04814257  0.00687751       0.008
   0.10316264  0.04814257  0.00687751       0.008
   0.11691766  0.04814257  0.00687751       0.008
   0.06189759  0.06189759  0.00687751       0.004
   0.07565261  0.06189759  0.00687751       0.008
   0.08940762  0.06189759  0.00687751       0.008
   0.10316264  0.06189759  0.00687751       0.008
   0.11691766  0.06189759  0.00687751       0.008
   0.07565261  0.07565261  0.00687751       0.004
   0.08940762  0.07565261  0.00687751       0.008
   0.10316264  0.07565261  0.00687751       0.008
   0.11691766  0.07565261  0.00687751       0.008
   0.08940762  0.08940762  0.00687751       0.004
   0.10316264  0.08940762  0.00687751       0.008
   0.11691766  0.08940762  0.00687751       0.008
   0.10316264  0.10316264  0.00687751       0.004
   0.11691766  0.10316264  0.00687751       0.008
   0.11691766  0.11691766  0.00687751       0.004
   0.02063253  0.02063253  0.02063253       0.001
   0.03438755  0.02063253  0.02063253       0.004
   0.04814257  0.02063253  0.02063253       0.004
   0.06189759  0.02063253  0.02063253       0.004
   0.07565261  0.02063253  0.02063253       0.004
   0.08940762  0.02063253  0.02063253       0.004
   0.10316264  0.02063253  0.02063253       0.004
   0.11691766  0.02063253  0.02063253       0.004
   0.03438755  0.03438755  0.02063253       0.004
   0.04814257  0.03438755  0.02063253       0.008
   0.06189759  0.03438755  0.02063253       0.008
   0.07565261  0.03438755  0.02063253       0.008
   0.08940762  0.03438755  0.02063253       0.008
   0.10316264  0.03438755  0.02063253       0.008
   0.11691766  0.03438755  0.02063253       0.008
   0.04814257  0.04814257  0.02063253       0.004
   0.06189759  0.04814257  0.02063253       0.008
   0.07565261  0.04814257  0.02063253       0.008
   0.08940762  0.04814257  0.02063253       0.008
   0.10316264  0.04814257  0.02063253       0.008
   0.11691766  0.04814257  0.02063253       0.008
   0.06189759  0.06189759  0.02063253       0.004
   0.07565261  0.06189759  0.02063253       0.008
   0.08940762  0.06189759  0.02063253       0.008
   0.10316264  0.06189759  0.02063253       0.008
   0.11691766  0.06189759  0.02063253       0.008
   0.07565261  0.07565261  0.02063253       0.004
   0.08940762  0.07565261  0.02063253       0.008
   0.10316264  0.07565261  0.02063253       0.008
   0.11691766  0.07565261  0.02063253       0.008
   0.08940762  0.08940762  0.02063253       0.004
   0.10316264  0.08940762  0.02063253       0.008
   0.11691766  0.08940762  0.02063253       0.008
   0.10316264  0.10316264  0.02063253       0.004
   0.11691766  0.10316264  0.02063253       0.008
   0.11691766  0.11691766  0.02063253       0.004
   0.03438755  0.03438755  0.03438755       0.001
   0.04814257  0.03438755  0.03438755       0.004
   0.06189759  0.03438755  0.03438755       0.004
   0.07565261  0.03438755  0.03438755       0.004
   0.08940762  0.03438755  0.03438755       0.004
   0.10316264  0.03438755  0.03438755       0.004
   0.11691766  0.03438755  0.03438755       0.004
   0.04814257  0.04814257  0.03438755       0.004
   0.06189759  0.04814257  0.03438755       0.008
   0.07565261  0.04814257  0.03438755       0.008
   0.08940762  0.04814257  0.03438755       0.008
   0.10316264  0.04814257  0.03438755       0.008
   0.11691766  0.04814257  0.03438755       0.008
   0.06189759  0.06189759  0.03438755       0.004
   0.07565261  0.06189759  0.03438755       0.008
   0.08940762  0.06189759  0.03438755       0.008
   0.10316264  0.06189759  0.03438755       0.008
   0.11691766  0.06189759  0.03438755       0.008
   0.07565261  0.07565261  0.03438755       0.004
   0.08940762  0.07565261  0.03438755       0.008
   0.10316264  0.07565261  0.03438755       0.008
   0.11691766  0.07565261  0.03438755       0.008
   0.08940762  0.08940762  0.03438755       0.004
   0.10316264  0.08940762  0.03438755       0.008
   0.11691766  0.08940762  0.03438755       0.008
   0.10316264  0.10316264  0.03438755       0.004
   0.11691766  0.10316264  0.03438755       0.008
   0.11691766  0.11691766  0.03438755       0.004
   0.04814257  0.04814257  0.04814257       0.001
   0.06189759  0.04814257  0.04814257       0.004
   0.07565261  0.04814257  0.04814257       0.004
   0.08940762  0.04814257  0.04814257       0.004
   0.10316264  0.04814257  0.04814257       0.004
   0.11691766  0.04814257  0.04814257       0.004
   0.06189759  0.06189759  0.04814257       0.004
   0.07565261  0.06189759  0.04814257       0.008
   0.08940762  0.06189759  0.04814257       0.008
   0.10316264  0.06189759  0.04814257       0.008
   0.11691766  0.06189759  0.04814257       0.008
   0.07565261  0.07565261  0.04814257       0.004
   0.08940762  0.07565261  0.04814257       0.008
   0.10316264  0.07565261  0.04814257       0.008
   0.11691766  0.07565261  0.04814257       0.008
   0.08940762  0.08940762  0.04814257       0.004
   0.10316264  0.08940762  0.04814257       0.008
   0.11691766  0.08940762  0.04814257       0.008
   0.10316264  0.10316264  0.04814257       0.004
   0.11691766  0.10316264  0.04814257       0.008
   0.11691766  0.11691766  0.04814257       0.004
   0.06189759  0.06189759  0.06189759       0.001
   0.07565261  0.06189759  0.06189759       0.004
   0.08940762  0.06189759  0.06189759       0.004
   0.10316264  0.06189759  0.06189759       0.004
   0.11691766  0.06189759  0.06189759       0.004
   0.07565261  0.07565261  0.06189759       0.004
   0.08940762  0.07565261  0.06189759       0.008
   0.10316264  0.07565261  0.06189759       0.008
   0.11691766  0.07565261  0.06189759       0.008
   0.08940762  0.08940762  0.06189759       0.004
   0.10316264  0.08940762  0.06189759       0.008
   0.11691766  0.08940762  0.06189759       0.008
   0.10316264  0.10316264  0.06189759       0.004
   0.11691766  0.10316264  0.06189759       0.008
   0.11691766  0.11691766  0.06189759       0.004
   0.07565261  0.07565261  0.07565261       0.001
   0.08940762  0.07565261  0.07565261       0.004
   0.10316264  0.07565261  0.07565261       0.004
   0.11691766  0.07565261  0.07565261       0.004
   0.08940762  0.08940762  0.07565261       0.004
   0.10316264  0.08940762  0.07565261       0.008
   0.11691766  0.08940762  0.07565261       0.008
   0.10316264  0.10316264  0.07565261       0.004
   0.11691766  0.10316264  0.07565261       0.008
   0.11691766  0.11691766  0.07565261       0.004
   0.08940762  0.08940762  0.08940762       0.001
   0.10316264  0.08940762  0.08940762       0.004
   0.11691766  0.08940762  0.08940762       0.004
   0.10316264  0.10316264  0.08940762       0.004
   0.11691766  0.10316264  0.08940762       0.008
   0.11691766  0.11691766  0.08940762       0.004
   0.10316264  0.10316264  0.10316264       0.001
   0.11691766  0.10316264  0.10316264       0.004
   0.11691766  0.11691766  0.10316264       0.004
   0.11691766  0.11691766  0.11691766       0.001

 k-points in reciprocal lattice and weights: Automatic kpoint scheme                 
   0.02777778  0.02777778  0.02777778       0.001
   0.08333333  0.02777778  0.02777778       0.004
   0.13888889  0.02777778  0.02777778       0.004
   0.19444444  0.02777778  0.02777778       0.004
   0.25000000  0.02777778  0.02777778       0.004
   0.30555556  0.02777778  0.02777778       0.004
   0.36111111  0.02777778  0.02777778       0.004
   0.41666667  0.02777778  0.02777778       0.004
   0.47222222  0.02777778  0.02777778       0.004
   0.08333333  0.08333333  0.02777778       0.004
   0.13888889  0.08333333  0.02777778       0.008
   0.19444444  0.08333333  0.02777778       0.008
   0.25000000  0.08333333  0.02777778       0.008
   0.30555556  0.08333333  0.02777778       0.008
   0.36111111  0.08333333  0.02777778       0.008
   0.41666667  0.08333333  0.02777778       0.008
   0.47222222  0.08333333  0.02777778       0.008
   0.13888889  0.13888889  0.02777778       0.004
   0.19444444  0.13888889  0.02777778       0.008
   0.25000000  0.13888889  0.02777778       0.008
   0.30555556  0.13888889  0.02777778       0.008
   0.36111111  0.13888889  0.02777778       0.008
   0.41666667  0.13888889  0.02777778       0.008
   0.47222222  0.13888889  0.02777778       0.008
   0.19444444  0.19444444  0.02777778       0.004
   0.25000000  0.19444444  0.02777778       0.008
   0.30555556  0.19444444  0.02777778       0.008
   0.36111111  0.19444444  0.02777778       0.008
   0.41666667  0.19444444  0.02777778       0.008
   0.47222222  0.19444444  0.02777778       0.008
   0.25000000  0.25000000  0.02777778       0.004
   0.30555556  0.25000000  0.02777778       0.008
   0.36111111  0.25000000  0.02777778       0.008
   0.41666667  0.25000000  0.02777778       0.008
   0.47222222  0.25000000  0.02777778       0.008
   0.30555556  0.30555556  0.02777778       0.004
   0.36111111  0.30555556  0.02777778       0.008
   0.41666667  0.30555556  0.02777778       0.008
   0.47222222  0.30555556  0.02777778       0.008
   0.36111111  0.36111111  0.02777778       0.004
   0.41666667  0.36111111  0.02777778       0.008
   0.47222222  0.36111111  0.02777778       0.008
   0.41666667  0.41666667  0.02777778       0.004
   0.47222222  0.41666667  0.02777778       0.008
   0.47222222  0.47222222  0.02777778       0.004
   0.08333333  0.08333333  0.08333333       0.001
   0.13888889  0.08333333  0.08333333       0.004
   0.19444444  0.08333333  0.08333333       0.004
   0.25000000  0.08333333  0.08333333       0.004
   0.30555556  0.08333333  0.08333333       0.004
   0.36111111  0.08333333  0.08333333       0.004
   0.41666667  0.08333333  0.08333333       0.004
   0.47222222  0.08333333  0.08333333       0.004
   0.13888889  0.13888889  0.08333333       0.004
   0.19444444  0.13888889  0.08333333       0.008
   0.25000000  0.13888889  0.08333333       0.008
   0.30555556  0.13888889  0.08333333       0.008
   0.36111111  0.13888889  0.08333333       0.008
   0.41666667  0.13888889  0.08333333       0.008
   0.47222222  0.13888889  0.08333333       0.008
   0.19444444  0.19444444  0.08333333       0.004
   0.25000000  0.19444444  0.08333333       0.008
   0.30555556  0.19444444  0.08333333       0.008
   0.36111111  0.19444444  0.08333333       0.008
   0.41666667  0.19444444  0.08333333       0.008
   0.47222222  0.19444444  0.08333333       0.008
   0.25000000  0.25000000  0.08333333       0.004
   0.30555556  0.25000000  0.08333333       0.008
   0.36111111  0.25000000  0.08333333       0.008
   0.41666667  0.25000000  0.08333333       0.008
   0.47222222  0.25000000  0.08333333       0.008
   0.30555556  0.30555556  0.08333333       0.004
   0.36111111  0.30555556  0.08333333       0.008
   0.41666667  0.30555556  0.08333333       0.008
   0.47222222  0.30555556  0.08333333       0.008
   0.36111111  0.36111111  0.08333333       0.004
   0.41666667  0.36111111  0.08333333       0.008
   0.47222222  0.36111111  0.08333333       0.008
   0.41666667  0.41666667  0.08333333       0.004
   0.47222222  0.41666667  0.08333333       0.008
   0.47222222  0.47222222  0.08333333       0.004
   0.13888889  0.13888889  0.13888889       0.001
   0.19444444  0.13888889  0.13888889       0.004
   0.25000000  0.13888889  0.13888889       0.004
   0.30555556  0.13888889  0.13888889       0.004
   0.36111111  0.13888889  0.13888889       0.004
   0.41666667  0.13888889  0.13888889       0.004
   0.47222222  0.13888889  0.13888889       0.004
   0.19444444  0.19444444  0.13888889       0.004
   0.25000000  0.19444444  0.13888889       0.008
   0.30555556  0.19444444  0.13888889       0.008
   0.36111111  0.19444444  0.13888889       0.008
   0.41666667  0.19444444  0.13888889       0.008
   0.47222222  0.19444444  0.13888889       0.008
   0.25000000  0.25000000  0.13888889       0.004
   0.30555556  0.25000000  0.13888889       0.008
   0.36111111  0.25000000  0.13888889       0.008
   0.41666667  0.25000000  0.13888889       0.008
   0.47222222  0.25000000  0.13888889       0.008
   0.30555556  0.30555556  0.13888889       0.004
   0.36111111  0.30555556  0.13888889       0.008
   0.41666667  0.30555556  0.13888889       0.008
   0.47222222  0.30555556  0.13888889       0.008
   0.36111111  0.36111111  0.13888889       0.004
   0.41666667  0.36111111  0.13888889       0.008
   0.47222222  0.36111111  0.13888889       0.008
   0.41666667  0.41666667  0.13888889       0.004
   0.47222222  0.41666667  0.13888889       0.008
   0.47222222  0.47222222  0.13888889       0.004
   0.19444444  0.19444444  0.19444444       0.001
   0.25000000  0.19444444  0.19444444       0.004
   0.30555556  0.19444444  0.19444444       0.004
   0.36111111  0.19444444  0.19444444       0.004
   0.41666667  0.19444444  0.19444444       0.004
   0.47222222  0.19444444  0.19444444       0.004
   0.25000000  0.25000000  0.19444444       0.004
   0.30555556  0.25000000  0.19444444       0.008
   0.36111111  0.25000000  0.19444444       0.008
   0.41666667  0.25000000  0.19444444       0.008
   0.47222222  0.25000000  0.19444444       0.008
   0.30555556  0.30555556  0.19444444       0.004
   0.36111111  0.30555556  0.19444444       0.008
   0.41666667  0.30555556  0.19444444       0.008
   0.47222222  0.30555556  0.19444444       0.008
   0.36111111  0.36111111  0.19444444       0.004
   0.41666667  0.36111111  0.19444444       0.008
   0.47222222  0.36111111  0.19444444       0.008
   0.41666667  0.41666667  0.19444444       0.004
   0.47222222  0.41666667  0.19444444       0.008
   0.47222222  0.47222222  0.19444444       0.004
   0.25000000  0.25000000  0.25000000       0.001
   0.30555556  0.25000000  0.25000000       0.004
   0.36111111  0.25000000  0.25000000       0.004
   0.41666667  0.25000000  0.25000000       0.004
   0.47222222  0.25000000  0.25000000       0.004
   0.30555556  0.30555556  0.25000000       0.004
   0.36111111  0.30555556  0.25000000       0.008
   0.41666667  0.30555556  0.25000000       0.008
   0.47222222  0.30555556  0.25000000       0.008
   0.36111111  0.36111111  0.25000000       0.004
   0.41666667  0.36111111  0.25000000       0.008
   0.47222222  0.36111111  0.25000000       0.008
   0.41666667  0.41666667  0.25000000       0.004
   0.47222222  0.41666667  0.25000000       0.008
   0.47222222  0.47222222  0.25000000       0.004
   0.30555556  0.30555556  0.30555556       0.001
   0.36111111  0.30555556  0.30555556       0.004
   0.41666667  0.30555556  0.30555556       0.004
   0.47222222  0.30555556  0.30555556       0.004
   0.36111111  0.36111111  0.30555556       0.004
   0.41666667  0.36111111  0.30555556       0.008
   0.47222222  0.36111111  0.30555556       0.008
   0.41666667  0.41666667  0.30555556       0.004
   0.47222222  0.41666667  0.30555556       0.008
   0.47222222  0.47222222  0.30555556       0.004
   0.36111111  0.36111111  0.36111111       0.001
   0.41666667  0.36111111  0.36111111       0.004
   0.47222222  0.36111111  0.36111111       0.004
   0.41666667  0.41666667  0.36111111       0.004
   0.47222222  0.41666667  0.36111111       0.008
   0.47222222  0.47222222  0.36111111       0.004
   0.41666667  0.41666667  0.41666667       0.001
   0.47222222  0.41666667  0.41666667       0.004
   0.47222222  0.47222222  0.41666667       0.004
   0.47222222  0.47222222  0.47222222       0.001

 position of ions in fractional coordinates (direct lattice) 
   0.00000000  0.00000000  0.00000000
   0.00000000  0.50000000  0.50000000
   0.50000000  0.00000000  0.50000000
   0.50000000  0.50000000  0.00000000

 position of ions in cartesian coordinates  (Angst):
   0.00000000  0.00000000  0.00000000
  -0.00000000  2.20402956  2.20402956
   2.20402956  0.00000000  2.20402956
   2.20402956  2.20402956  0.00000000



--------------------------------------------------------------------------------------------------------


 k-point   1 :   0.0278 0.0278 0.0278  plane waves:    1557
 k-point   2 :   0.0833 0.0278 0.0278  plane waves:    1550
 k-point   3 :   0.1389 0.0278 0.0278  plane waves:    1554
 k-point   4 :   0.1944 0.0278 0.0278  plane waves:    1548
 k-point   5 :   0.2500 0.0278 0.0278  plane waves:    1547
 k-point   6 :   0.3056 0.0278 0.0278  plane waves:    1545
 k-point   7 :   0.3611 0.0278 0.0278  plane waves:    1545
 k-point   8 :   0.4167 0.0278 0.0278  plane waves:    1552
 k-point   9 :   0.4722 0.0278 0.0278  plane waves:    1544
 k-point  10 :   0.0833 0.0833 0.0278  plane waves:    1547
 k-point  11 :   0.1389 0.0833 0.0278  plane waves:    1542
 k-point  12 :   0.1944 0.0833 0.0278  plane waves:    1551
 k-point  13 :   0.2500 0.0833 0.0278  plane waves:    1545
 k-point  14 :   0.3056 0.0833 0.0278  plane waves:    1550
 k-point  15 :   0.3611 0.0833 0.0278  plane waves:    1554
 k-point  16 :   0.4167 0.0833 0.0278  plane waves:    1551
 k-point  17 :   0.4722 0.0833 0.0278  plane waves:    1556
 k-point  18 :   0.1389 0.1389 0.0278  plane waves:    1549
 k-point  19 :   0.1944 0.1389 0.0278  plane waves:    1551
 k-point  20 :   0.2500 0.1389 0.0278  plane waves:    1551
 k-point  21 :   0.3056 0.1389 0.0278  plane waves:    1551
 k-point  22 :   0.3611 0.1389 0.0278  plane waves:    1554
 k-point  23 :   0.4167 0.1389 0.0278  plane waves:    1556
 k-point  24 :   0.4722 0.1389 0.0278  plane waves:    1557
 k-point  25 :   0.1944 0.1944 0.0278  plane waves:    1556
 k-point  26 :   0.2500 0.1944 0.0278  plane waves:    1557
 k-point  27 :   0.3056 0.1944 0.0278  plane waves:    1553
 k-point  28 :   0.3611 0.1944 0.0278  plane waves:    1552
 k-point  29 :   0.4167 0.1944 0.0278  plane waves:    1549
 k-point  30 :   0.4722 0.1944 0.0278  plane waves:    1558
 k-point  31 :   0.2500 0.2500 0.0278  plane waves:    1560
 k-point  32 :   0.3056 0.2500 0.0278  plane waves:    1562
 k-point  33 :   0.3611 0.2500 0.0278  plane waves:    1559
 k-point  34 :   0.4167 0.2500 0.0278  plane waves:    1555
 k-point  35 :   0.4722 0.2500 0.0278  plane waves:    1557
 k-point  36 :   0.3056 0.3056 0.0278  plane waves:    1566
 k-point  37 :   0.3611 0.3056 0.0278  plane waves:    1569
 k-point  38 :   0.4167 0.3056 0.0278  plane waves:    1564
 k-point  39 :   0.4722 0.3056 0.0278  plane waves:    1564
 k-point  40 :   0.3611 0.3611 0.0278  plane waves:    1567
 k-point  41 :   0.4167 0.3611 0.0278  plane waves:    1567
 k-point  42 :   0.4722 0.3611 0.0278  plane waves:    1567
 k-point  43 :   0.4167 0.4167 0.0278  plane waves:    1566
 k-point  44 :   0.4722 0.4167 0.0278  plane waves:    1566
 k-point  45 :   0.4722 0.4722 0.0278  plane waves:    1568
 k-point  46 :   0.0833 0.0833 0.0833  plane waves:    1548
 k-point  47 :   0.1389 0.0833 0.0833  plane waves:    1551
 k-point  48 :   0.1944 0.0833 0.0833  plane waves:    1555
 k-point  49 :   0.2500 0.0833 0.0833  plane waves:    1545
 k-point  50 :   0.3056 0.0833 0.0833  plane waves:    1543
 k-point  51 :   0.3611 0.0833 0.0833  plane waves:    1546
 k-point  52 :   0.4167 0.0833 0.0833  plane waves:    1552
 k-point  53 :   0.4722 0.0833 0.0833  plane waves:    1556
 k-point  54 :   0.1389 0.1389 0.0833  plane waves:    1552
 k-point  55 :   0.1944 0.1389 0.0833  plane waves:    1549
 k-point  56 :   0.2500 0.1389 0.0833  plane waves:    1550
 k-point  57 :   0.3056 0.1389 0.0833  plane waves:    1548
 k-point  58 :   0.3611 0.1389 0.0833  plane waves:    1549
 k-point  59 :   0.4167 0.1389 0.0833  plane waves:    1555
 k-point  60 :   0.4722 0.1389 0.0833  plane waves:    1559
 k-point  61 :   0.1944 0.1944 0.0833  plane waves:    1549
 k-point  62 :   0.2500 0.1944 0.0833  plane waves:    1554
 k-point  63 :   0.3056 0.1944 0.0833  plane waves:    1554
 k-point  64 :   0.3611 0.1944 0.0833  plane waves:    1553
 k-point  65 :   0.4167 0.1944 0.0833  plane waves:    1559
 k-point  66 :   0.4722 0.1944 0.0833  plane waves:    1559
 k-point  67 :   0.2500 0.2500 0.0833  plane waves:    1561
 k-point  68 :   0.3056 0.2500 0.0833  plane waves:    1564
 k-point  69 :   0.3611 0.2500 0.0833  plane waves:    1562
 k-point  70 :   0.4167 0.2500 0.0833  plane waves:    1556
 k-point  71 :   0.4722 0.2500 0.0833  plane waves:    1554
 k-point  72 :   0.3056 0.3056 0.0833  plane waves:    1568
 k-point  73 :   0.3611 0.3056 0.0833  plane waves:    1565
 k-point  74 :   0.4167 0.3056 0.0833  plane waves:    1565
 k-point  75 :   0.4722 0.3056 0.0833  plane waves:    1561
 k-point  76 :   0.3611 0.3611 0.0833  plane waves:    1567
 k-point  77 :   0.4167 0.3611 0.0833  plane waves:    1563
 k-point  78 :   0.4722 0.3611 0.0833  plane waves:    1563
 k-point  79 :   0.4167 0.4167 0.0833  plane waves:    1562
 k-point  80 :   0.4722 0.4167 0.0833  plane waves:    1561
 k-point  81 :   0.4722 0.4722 0.0833  plane waves:    1562
 k-point  82 :   0.1389 0.1389 0.1389  plane waves:    1548
 k-point  83 :   0.1944 0.1389 0.1389  plane waves:    1548
 k-point  84 :   0.2500 0.1389 0.1389  plane waves:    1548
 k-point  85 :   0.3056 0.1389 0.1389  plane waves:    1546
 k-point  86 :   0.3611 0.1389 0.1389  plane waves:    1551
 k-point  87 :   0.4167 0.1389 0.1389  plane waves:    1551
 k-point  88 :   0.4722 0.1389 0.1389  plane waves:    1555
 k-point  89 :   0.1944 0.1944 0.1389  plane waves:    1552
 k-point  90 :   0.2500 0.1944 0.1389  plane waves:    1550
 k-point  91 :   0.3056 0.1944 0.1389  plane waves:    1554
 k-point  92 :   0.3611 0.1944 0.1389  plane waves:    1555
 k-point  93 :   0.4167 0.1944 0.1389  plane waves:    1555
 k-point  94 :   0.4722 0.1944 0.1389  plane waves:    1556
 k-point  95 :   0.2500 0.2500 0.1389  plane waves:    1552
 k-point  96 :   0.3056 0.2500 0.1389  plane waves:    1559
 k-point  97 :   0.3611 0.2500 0.1389  plane waves:    1557
 k-point  98 :   0.4167 0.2500 0.1389  plane waves:    1557
 k-point  99 :   0.4722 0.2500 0.1389  plane waves:    1556
 k-point 100 :   0.3056 0.3056 0.1389  plane waves:    1566
 k-point 101 :   0.3611 0.3056 0.1389  plane waves:    1559
 k-point 102 :   0.4167 0.3056 0.1389  plane waves:    1560
 k-point 103 :   0.4722 0.3056 0.1389  plane waves:    1555
 k-point 104 :   0.3611 0.3611 0.1389  plane waves:    1566
 k-point 105 :   0.4167 0.3611 0.1389  plane waves:    1567
 k-point 106 :   0.4722 0.3611 0.1389  plane waves:    1559
 k-point 107 :   0.4167 0.4167 0.1389  plane waves:    1563
 k-point 108 :   0.4722 0.4167 0.1389  plane waves:    1560
 k-point 109 :   0.4722 0.4722 0.1389  plane waves:    1559
 k-point 110 :   0.1944 0.1944 0.1944  plane waves:    1553
 k-point 111 :   0.2500 0.1944 0.1944  plane waves:    1556
 k-point 112 :   0.3056 0.1944 0.1944  plane waves:    1557
 k-point 113 :   0.3611 0.1944 0.1944  plane waves:    1552
 k-point 114 :   0.4167 0.1944 0.1944  plane waves:    1555
 k-point 115 :   0.4722 0.1944 0.1944  plane waves:    1553
 k-point 116 :   0.2500 0.2500 0.1944  plane waves:    1554
 k-point 117 :   0.3056 0.2500 0.1944  plane waves:    1556
 k-point 118 :   0.3611 0.2500 0.1944  plane waves:    1553
 k-point 119 :   0.4167 0.2500 0.1944  plane waves:    1551
 k-point 120 :   0.4722 0.2500 0.1944  plane waves:    1552
 k-point 121 :   0.3056 0.3056 0.1944  plane waves:    1556
 k-point 122 :   0.3611 0.3056 0.1944  plane waves:    1553
 k-point 123 :   0.4167 0.3056 0.1944  plane waves:    1551
 k-point 124 :   0.4722 0.3056 0.1944  plane waves:    1549
 k-point 125 :   0.3611 0.3611 0.1944  plane waves:    1552
 k-point 126 :   0.4167 0.3611 0.1944  plane waves:    1555
 k-point 127 :   0.4722 0.3611 0.1944  plane waves:    1554
 k-point 128 :   0.4167 0.4167 0.1944  plane waves:    1561
 k-point 129 :   0.4722 0.4167 0.1944  plane waves:    1560
 k-point 130 :   0.4722 0.4722 0.1944  plane waves:    1559
 k-point 131 :   0.2500 0.2500 0.2500  plane waves:    1550
 k-point 132 :   0.3056 0.2500 0.2500  plane waves:    1563
 k-point 133 :   0.3611 0.2500 0.2500  plane waves:    1555
 k-point 134 :   0.4167 0.2500 0.2500  plane waves:    1553
 k-point 135 :   0.4722 0.2500 0.2500  plane waves:    1545
 k-point 136 :   0.3056 0.3056 0.2500  plane waves:    1554
 k-point 137 :   0.3611 0.3056 0.2500  plane waves:    1553
 k-point 138 :   0.4167 0.3056 0.2500  plane waves:    1551
 k-point 139 :   0.4722 0.3056 0.2500  plane waves:    1546
 k-point 140 :   0.3611 0.3611 0.2500  plane waves:    1553
 k-point 141 :   0.4167 0.3611 0.2500  plane waves:    1554
 k-point 142 :   0.4722 0.3611 0.2500  plane waves:    1552
 k-point 143 :   0.4167 0.4167 0.2500  plane waves:    1555
 k-point 144 :   0.4722 0.4167 0.2500  plane waves:    1559
 k-point 145 :   0.4722 0.4722 0.2500  plane waves:    1561
 k-point 146 :   0.3056 0.3056 0.3056  plane waves:    1556
 k-point 147 :   0.3611 0.3056 0.3056  plane waves:    1554
 k-point 148 :   0.4167 0.3056 0.3056  plane waves:    1549
 k-point 149 :   0.4722 0.3056 0.3056  plane waves:    1550
 k-point 150 :   0.3611 0.3611 0.3056  plane waves:    1557
 k-point 151 :   0.4167 0.3611 0.3056  plane waves:    1553
 k-point 152 :   0.4722 0.3611 0.3056  plane waves:    1550
 k-point 153 :   0.4167 0.4167 0.3056  plane waves:    1555
 k-point 154 :   0.4722 0.4167 0.3056  plane waves:    1560
 k-point 155 :   0.4722 0.4722 0.3056  plane waves:    1567
 k-point 156 :   0.3611 0.3611 0.3611  plane waves:    1556
 k-point 157 :   0.4167 0.3611 0.3611  plane waves:    1554
 k-point 158 :   0.4722 0.3611 0.3611  plane waves:    1554
 k-point 159 :   0.4167 0.4167 0.3611  plane waves:    1555
 k-point 160 :   0.4722 0.4167 0.3611  plane waves:    1557
 k-point 161 :   0.4722 0.4722 0.3611  plane waves:    1557
 k-point 162 :   0.4167 0.4167 0.4167  plane waves:    1553
 k-point 163 :   0.4722 0.4167 0.4167  plane waves:    1556
 k-point 164 :   0.4722 0.4722 0.4167  plane waves:    1560
 k-point 165 :   0.4722 0.4722 0.4722  plane waves:    1568

 maximum and minimum number of plane-waves per node :      1569     1542

 maximum number of plane-waves:      1569
 maximum index in each direction: 
   IXMAX=    7   IYMAX=    7   IZMAX=    7
   IXMIN=   -7   IYMIN=   -7   IZMIN=   -7


 serial   3D FFT for wavefunctions
 parallel 3D FFT for charge:
    minimum data exchange during FFTs selected (reduces bandwidth)


 total amount of memory used by VASP MPI-rank0    38192. kBytes
=======================================================================

   base      :      30000. kBytes
   nonlr-proj:       1199. kBytes
   fftplans  :        717. kBytes
   grid      :       1977. kBytes
   one-center:         12. kBytes
   wavefun   :       4287. kBytes

     INWAV:  cpu time      0.0001: real time      0.0001
 Broyden mixing: mesh for mixing (old mesh)
   NGX = 15   NGY = 15   NGZ = 15
  (NGX  = 60   NGY  = 60   NGZ  = 60)
  gives a total of   3375 points

 initial charge density was supplied:
 charge density of overlapping atoms calculated
 number of electron      12.0000000 magnetization 
 keeping initial charge density in first step


--------------------------------------------------------------------------------------------------------


 Maximum index for non-local projection operator         1706
 Maximum index for augmentation-charges         1223 (set IRDMAX)


--------------------------------------------------------------------------------------------------------


 First call to EWALD:  gamma=   0.402
 Maximum number of real-space cells 3x 3x 3
 Maximum number of reciprocal cells 3x 3x 3

    FEWALD:  cpu time      0.0066: real time      0.0026


--------------------------------------- Ionic step        1  -------------------------------------------




--------------------------------------- Iteration      1(   1)  ---------------------------------------


    POTLOK:  cpu time      0.0489: real time      0.0249
    SETDIJ:  cpu time      0.0073: real time      0.0033
     EDDAV:  cpu time      8.8602: real time      4.4362
       DOS:  cpu time      0.0062: real time      0.0026
    --------------------------------------------
      LOOP:  cpu time      8.9227: real time      4.4670

 eigenvalue-minimisations  :  4620
 total energy-change (2. order) :-0.2603574E+01  (-0.3549151E+03)
 number of electron      12.0000000 magnetization 
 augmentation part       12.0000000 magnetization 

 Free energy of the ion-electron system (eV)
  ---------------------------------------------------
  alpha Z        PSCENC =        -0.62742696
  Ewald energy   TEWEN  =      -269.59227738
  -Hartree energ DENC   =        -1.12480689
  -exchange      EXHF   =         0.00000000
  -V(xc)+E(xc)   XCENC  =      -106.72970719
  PAW double counting   =       264.80062850     -136.98248303
  entropy T*S    EENTRO =         0.00179156
  eigenvalues    EBANDS =        33.49808981
  atomic energy  EATOM  =       214.15261729
  Solvation  Ediel_sol  =         0.00000000
  ---------------------------------------------------
  free energy    TOTEN  =        -2.60357427 eV

  energy without entropy =       -2.60536584  energy(sigma->0) =       -2.60417146


--------------------------------------------------------------------------------------------------------




--------------------------------------- Iteration      1(   2)  ---------------------------------------


     EDDAV:  cpu time     11.8794: real time      5.9444
       DOS:  cpu time      0.0046: real time      0.0025
    --------------------------------------------
      LOOP:  cpu time     11.8839: real time      5.9469

 eigenvalue-minimisations  :  6622
 total energy-change (2. order) :-0.1151119E+02  (-0.1121489E+02)
 number of electron      12.0000000 magnetization 
 augmentation part       12.0000000 magnetization 

 Free energy of the ion-electron system (eV)
  ---------------------------------------------------
  alpha Z        PSCENC =        -0.62742696
  Ewald energy   TEWEN  =      -269.59227738
  -Hartree energ DENC   =        -1.12480689
  -exchange      EXHF   =         0.00000000
  -V(xc)+E(xc)   XCENC  =      -106.72970719
  PAW double counting   =       264.80062850     -136.98248303
  entropy T*S    EENTRO =         0.00158249
  eigenvalues    EBANDS =        21.98710800
  atomic energy  EATOM  =       214.15261729
  Solvation  Ediel_sol  =         0.00000000
  ---------------------------------------------------
  free energy    TOTEN  =       -14.11476516 eV

  energy without entropy =      -14.11634765  energy(sigma->0) =      -14.11529265


--------------------------------------------------------------------------------------------------------




--------------------------------------- Iteration      1(   3)  ---------------------------------------


     EDDAV:  cpu time     11.1734: real time      5.5925
       DOS:  cpu time      0.0023: real time      0.0023
    --------------------------------------------
      LOOP:  cpu time     11.1757: real time      5.5947

 eigenvalue-minimisations  :  6188
 total energy-change (2. order) :-0.9011092E-01  (-0.8960018E-01)
 number of electron      12.0000000 magnetization 
 augmentation part       12.0000000 magnetization 

 Free energy of the ion-electron system (eV)
  ---------------------------------------------------
  alpha Z        PSCENC =        -0.62742696
  Ewald energy   TEWEN  =      -269.59227738
  -Hartree energ DENC   =        -1.12480689
  -exchange      EXHF   =         0.00000000
  -V(xc)+E(xc)   XCENC  =      -106.72970719
  PAW double counting   =       264.80062850     -136.98248303
  entropy T*S    EENTRO =         0.00188925
  eigenvalues    EBANDS =        21.89669032
  atomic energy  EATOM  =       214.15261729
  Solvation  Ediel_sol  =         0.00000000
  ---------------------------------------------------
  free energy    TOTEN  =       -14.20487608 eV

  energy without entropy =      -14.20676533  energy(sigma->0) =      -14.20550583


--------------------------------------------------------------------------------------------------------




--------------------------------------- Iteration      1(   4)  ---------------------------------------


     EDDAV:  cpu time     14.0026: real time      7.0161
       DOS:  cpu time      0.0033: real time      0.0021
    --------------------------------------------
      LOOP:  cpu time     14.0059: real time      7.0182

 eigenvalue-minimisations  :  7574
 total energy-change (2. order) :-0.2732186E-03  (-0.2732176E-03)
 number of electron      12.0000000 magnetization 
 augmentation part       12.0000000 magnetization 

 Free energy of the ion-electron system (eV)
  ---------------------------------------------------
  alpha Z        PSCENC =        -0.62742696
  Ewald energy   TEWEN  =      -269.59227738
  -Hartree energ DENC   =        -1.12480689
  -exchange      EXHF   =         0.00000000
  -V(xc)+E(xc)   XCENC  =      -106.72970719
  PAW double counting   =       264.80062850     -136.98248303
  entropy T*S    EENTRO =         0.00188918
  eigenvalues    EBANDS =        21.89641717
  atomic energy  EATOM  =       214.15261729
  Solvation  Ediel_sol  =         0.00000000
  ---------------------------------------------------
  free energy    TOTEN  =       -14.20514930 eV

  energy without entropy =      -14.20703848  energy(sigma->0) =      -14.20577903


--------------------------------------------------------------------------------------------------------




--------------------------------------- Iteration      1(   5)  ---------------------------------------


     EDDAV:  cpu time     11.7871: real time      5.8991
       DOS:  cpu time      0.0022: real time      0.0022
    CHARGE:  cpu time      0.2949: real time      0.1471
    MIXING:  cpu time      0.0010: real time      0.0010
    --------------------------------------------
      LOOP:  cpu time     12.0851: real time      6.0494

 eigenvalue-minimisations  :  6258
 total energy-change (2. order) :-0.2478916E-06  (-0.2478975E-06)
 number of electron      11.9999999 magnetization 
 augmentation part       -0.1745441 magnetization 

 Broyden mixing:
  rms(total) = 0.19001E+00    rms(broyden)= 0.19001E+00
  rms(prec ) = 0.39994E+00
  weight for this iteration     100.00

 Free energy of the ion-electron system (eV)
  ---------------------------------------------------
  alpha Z        PSCENC =        -0.62742696
  Ewald energy   TEWEN  =      -269.59227738
  -Hartree energ DENC   =        -1.12480689
  -exchange      EXHF   =         0.00000000
  -V(xc)+E(xc)   XCENC  =      -106.72970719
  PAW double counting   =       264.80062850     -136.98248303
  entropy T*S    EENTRO =         0.00188918
  eigenvalues    EBANDS =        21.89641692
  atomic energy  EATOM  =       214.15261729
  Solvation  Ediel_sol  =         0.00000000
  ---------------------------------------------------
  free energy    TOTEN  =       -14.20514955 eV

  energy without entropy =      -14.20703873  energy(sigma->0) =      -14.20577928


--------------------------------------------------------------------------------------------------------




--------------------------------------- Iteration      1(   6)  ---------------------------------------


    POTLOK:  cpu time      0.0485: real time      0.0245
    SETDIJ:  cpu time      0.0069: real time      0.0029
    EDDIAG:  cpu time      1.4537: real time      0.7269
  RMM-DIIS:  cpu time      2.8692: real time      1.5272
    ORTHCH:  cpu time      0.1038: real time      0.0523
       DOS:  cpu time      0.0026: real time      0.0026
    CHARGE:  cpu time      0.2951: real time      0.1473
    MIXING:  cpu time      0.0011: real time      0.0011
    --------------------------------------------
      LOOP:  cpu time      4.7810: real time      2.4848

 eigenvalue-minimisations  :  4620
 total energy-change (2. order) : 0.4535297E-01  (-0.9182491E-03)
 number of electron      11.9999999 magnetization 
 augmentation part       -0.1773956 magnetization 

 Broyden mixing:
  rms(total) = 0.11253E+00    rms(broyden)= 0.11253E+00
  rms(prec ) = 0.24634E+00
  weight for this iteration     100.00

 eigenvalues of (default mixing * dielectric matrix)
  average eigenvalue GAMMA=   2.3678
  2.3678

 Free energy of the ion-electron system (eV)
  ---------------------------------------------------
  alpha Z        PSCENC =        -0.62742696
  Ewald energy   TEWEN  =      -269.59227738
  -Hartree energ DENC   =        -0.84844163
  -exchange      EXHF   =         0.00000000
  -V(xc)+E(xc)   XCENC  =      -106.67186426
  PAW double counting   =       319.13082914     -191.27953476
  entropy T*S    EENTRO =         0.00188460
  eigenvalues    EBANDS =        21.57441738
  atomic energy  EATOM  =       214.15261729
  Solvation  Ediel_sol  =         0.00000000
  ---------------------------------------------------
  free energy    TOTEN  =       -14.15979658 eV

  energy without entropy =      -14.16168118  energy(sigma->0) =      -14.16042478


--------------------------------------------------------------------------------------------------------




--------------------------------------- Iteration      1(   7)  ---------------------------------------


    POTLOK:  cpu time      0.0479: real time      0.0243
    SETDIJ:  cpu time      0.0070: real time      0.0030
    EDDIAG:  cpu time      1.8771: real time      0.9386
  RMM-DIIS:  cpu time      2.9051: real time      1.5591
    ORTHCH:  cpu time      0.1033: real time      0.0520
       DOS:  cpu time      0.0021: real time      0.0021
    CHARGE:  cpu time      0.2961: real time      0.1482
    MIXING:  cpu time      0.0011: real time      0.0011
    --------------------------------------------
      LOOP:  cpu time      5.2397: real time      2.7284

 eigenvalue-minimisations  :  4620
 total energy-change (2. order) : 0.3200040E-01  (-0.2682479E-02)
 number of electron      11.9999999 magnetization 
 augmentation part       -0.1824304 magnetization 

 Broyden mixing:
  rms(total) = 0.19751E-01    rms(broyden)= 0.19751E-01
  rms(prec ) = 0.21078E-01
  weight for this iteration     100.00

 eigenvalues of (default mixing * dielectric matrix)
  average eigenvalue GAMMA=   2.6087
  2.6087  2.6087

 Free energy of the ion-electron system (eV)
  ---------------------------------------------------
  alpha Z        PSCENC =        -0.62742696
  Ewald energy   TEWEN  =      -269.59227738
  -Hartree energ DENC   =        -0.56083304
  -exchange      EXHF   =         0.00000000
  -V(xc)+E(xc)   XCENC  =      -106.53329802
  PAW double counting   =       411.83702303     -283.94273603
  entropy T*S    EENTRO =         0.00188016
  eigenvalues    EBANDS =        21.13725478
  atomic energy  EATOM  =       214.15261729
  Solvation  Ediel_sol  =         0.00000000
  ---------------------------------------------------
  free energy    TOTEN  =       -14.12779618 eV

  energy without entropy =      -14.12967634  energy(sigma->0) =      -14.12842290


--------------------------------------------------------------------------------------------------------




--------------------------------------- Iteration      1(   8)  ---------------------------------------


    POTLOK:  cpu time      0.0633: real time      0.0316
    SETDIJ:  cpu time      0.0127: real time      0.0048
    EDDIAG:  cpu time      1.5499: real time      0.7778
  RMM-DIIS:  cpu time      2.9028: real time      1.5573
    ORTHCH:  cpu time      0.1006: real time      0.0523
       DOS:  cpu time      0.0065: real time      0.0025
    CHARGE:  cpu time      0.2946: real time      0.1470
    MIXING:  cpu time      0.0013: real time      0.0013
    --------------------------------------------
      LOOP:  cpu time      4.9316: real time      2.5746

 eigenvalue-minimisations  :  4620
 total energy-change (2. order) : 0.1521971E-04  (-0.5765202E-04)
 number of electron      11.9999999 magnetization 
 augmentation part       -0.1826109 magnetization 

 Broyden mixing:
  rms(total) = 0.29132E-02    rms(broyden)= 0.29132E-02
  rms(prec ) = 0.43743E-02
  weight for this iteration     100.00

 eigenvalues of (default mixing * dielectric matrix)
  average eigenvalue GAMMA=   2.1176
  0.8836  2.7542  2.7151

 Free energy of the ion-electron system (eV)
  ---------------------------------------------------
  alpha Z        PSCENC =        -0.62742696
  Ewald energy   TEWEN  =      -269.59227738
  -Hartree energ DENC   =        -0.56948238
  -exchange      EXHF   =         0.00000000
  -V(xc)+E(xc)   XCENC  =      -106.52423417
  PAW double counting   =       389.04978789     -261.17226386
  entropy T*S    EENTRO =         0.00188084
  eigenvalues    EBANDS =        21.15361777
  atomic energy  EATOM  =       214.15261729
  Solvation  Ediel_sol  =         0.00000000
  ---------------------------------------------------
  free energy    TOTEN  =       -14.12778096 eV

  energy without entropy =      -14.12966180  energy(sigma->0) =      -14.12840791


--------------------------------------------------------------------------------------------------------




--------------------------------------- Iteration      1(   9)  ---------------------------------------


    POTLOK:  cpu time      0.0493: real time      0.0253
    SETDIJ:  cpu time      0.0061: real time      0.0034
    EDDIAG:  cpu time      1.5068: real time      0.7535
  RMM-DIIS:  cpu time      2.8836: real time      1.5392
    ORTHCH:  cpu time      0.0993: real time      0.0515
       DOS:  cpu time      0.0062: real time      0.0023
    CHARGE:  cpu time      0.2942: real time      0.1472
    MIXING:  cpu time      0.0010: real time      0.0010
    --------------------------------------------
      LOOP:  cpu time      4.8465: real time      2.5233

 eigenvalue-minimisations  :  4620
 total energy-change (2. order) :-0.5626285E-05  (-0.1064769E-04)
 number of electron      11.9999999 magnetization 
 augmentation part       -0.1829518 magnetization 

 Broyden mixing:
  rms(total) = 0.16804E-02    rms(broyden)= 0.16804E-02
  rms(prec ) = 0.17547E-02
  weight for this iteration     100.00

 eigenvalues of (default mixing * dielectric matrix)
  average eigenvalue GAMMA=   1.9110
  3.0052  2.6912  0.9738  0.9738

 Free energy of the ion-electron system (eV)
  ---------------------------------------------------
  alpha Z        PSCENC =        -0.62742696
  Ewald energy   TEWEN  =      -269.59227738
  -Hartree energ DENC   =        -0.56740022
  -exchange      EXHF   =         0.00000000
  -V(xc)+E(xc)   XCENC  =      -106.52124484
  PAW double counting   =       385.94092492     -258.06461941
  entropy T*S    EENTRO =         0.00188089
  eigenvalues    EBANDS =        21.14975914
  atomic energy  EATOM  =       214.15261729
  Solvation  Ediel_sol  =         0.00000000
  ---------------------------------------------------
  free energy    TOTEN  =       -14.12778659 eV

  energy without entropy =      -14.12966748  energy(sigma->0) =      -14.12841355


--------------------------------------------------------------------------------------------------------




[...]

 k-point   144 :       0.4722    0.4167    0.2500
  band No.  band energies     occupation 
      1      -0.4684      2.00000
      2      -0.0560      2.00000
      3       0.7630      2.00000
      4       1.1675      2.00000
      5       3.2531      2.00000
      6       3.6518      2.00000
      7       4.4534      2.00000
      8       4.8543      2.00005
      9      10.3879     -0.00000
     10      10.7533     -0.00000
     11      11.4832      0.00000
     12      11.8536      0.00000
     13      12.6037      0.00000
     14      12.8179      0.00000

 k-point   145 :       0.4722    0.4722    0.2500
  band No.  band energies     occupation 
      1      -0.1020      2.00000
      2       0.3087      2.00000
      3       0.3087      2.00000
      4       0.7172      2.00000
      5       3.6072      2.00000
      6       4.0079      2.00000
      7       4.0079      2.00000
      8       4.4091      2.00000
      9      10.7225     -0.00000
     10      11.0900      0.00000
     11      11.0900      0.00000
     12      11.4585      0.00000
     13      13.4126      0.00000
     14      13.4893      0.00000

 k-point   146 :       0.3056    0.3056    0.3056
  band No.  band energies     occupation 
      1      -1.8057      2.00000
      2       1.0833      2.00000
      3       1.0833      2.00000
      4       1.0833      2.00000
      5       3.9637      2.00000
      6       3.9637      2.00000
      7       3.9637      2.00000
      8       6.7580     -0.00000
      9       9.9297     -0.00000
     10       9.9297     -0.00000
     11       9.9297     -0.00000
     12      11.9232      0.00000
     13      11.9232      0.00000
     14      11.9232      0.00000

 k-point   147 :       0.3611    0.3056    0.3056
  band No.  band energies     occupation 
      1      -1.5281      2.00000
      2       0.5382      2.00000
      3       1.3503      2.00000
      4       1.3503      2.00000
      5       3.4322      2.00000
      6       3.4322      2.00000
      7       4.2307      2.00000
      8       6.2295     -0.00000
      9      10.1793     -0.00000
     10      10.1793     -0.00000
     11      10.9356     -0.00000
     12      11.8839      0.00000
     13      11.8839      0.00000
     14      12.1690      0.00000

 k-point   148 :       0.4167    0.3056    0.3056
  band No.  band energies     occupation 
      1      -1.2047      2.00000
      2       0.0360      2.00000
      3       1.6543      2.00000
      4       1.6543      2.00000
      5       2.9516      2.00000
      6       2.9516      2.00000
      7       4.5426      2.00000
      8       5.7430     -0.07087
      9      10.4580     -0.00000
     10      10.4580     -0.00000
     11      11.5849      0.00000
     12      11.5849      0.00000
     13      11.9512      0.00000
     14      12.4548      0.00000

 k-point   149 :       0.4722    0.3056    0.3056
  band No.  band energies     occupation 
      1      -0.8360      2.00000
      2      -0.4223      2.00000
      3       1.9608      2.00000
      4       1.9608      2.00000
      5       2.5566      2.00000
      6       2.5566      2.00000
      7       4.8990      2.00018
      8       5.2993      2.05149
      9      10.7297     -0.00000
     10      10.7297     -0.00000
     11      11.2765      0.00000
     12      11.2765      0.00000
     13      12.7799      0.00000
     14      12.9443      0.00000

 k-point   150 :       0.3611    0.3611    0.3056
  band No.  band energies     occupation 
      1      -1.2510      2.00000
      2       0.8089      2.00000
      3       0.8089      2.00000
      4       1.6085      2.00000
      5       2.9072      2.00000
      6       3.6971      2.00000
      7       3.6971      2.00000
      8       5.6992     -0.04888
      9      10.4338     -0.00000
     10      11.1723      0.00000
     11      11.1723      0.00000
     12      12.1401      0.00000
     13      12.1401      0.00000
     14      12.4098      0.00000

 k-point   151 :       0.4167    0.3611    0.3056
  band No.  band energies     occupation 
      1      -0.9284      2.00000
      2       0.3088      2.00000
      3       1.1217      2.00000
      4       1.8685      2.00000
      5       2.4684      2.00000
      6       3.2093      2.00000
      7       4.0087      2.00000
      8       5.2113      2.05996
      9      10.7213     -0.00000
     10      11.3947      0.00000
     11      11.8920      0.00000
     12      12.1285      0.00000
     13      12.4159      0.00000
     14      12.4814      0.00000

 k-point   152 :       0.4722    0.3611    0.3056
  band No.  band energies     occupation 
      1      -0.5606      2.00000
      2      -0.1480      2.00000
      3       1.4712      2.00000
      4       1.8224      2.00000
      5       2.4240      2.00000
      6       2.7733      2.00000
      7       4.3655      2.00000
      8       4.7665      2.00000
      9      11.0346      0.00000
     10      11.3384      0.00000
     11      11.8965      0.00000
     12      12.1644      0.00000
     13      12.6836      0.00000
     14      13.0646      0.00000

 k-point   153 :       0.4167    0.4167    0.3056
  band No.  band energies     occupation 
      1      -0.6067      2.00000
      2       0.6255      2.00000
      3       0.6255      2.00000
      4       1.7762      2.00000
      5       2.3797      2.00000
      6       3.5189      2.00000
      7       3.5189      2.00000
      8       4.7223      2.00000
      9      11.0135      0.00000
     10      12.0036      0.00000
     11      12.0036      0.00000
     12      12.5703      0.00000
     13      12.5721      0.00000
     14      12.9799      0.00000

 k-point   154 :       0.4722    0.4167    0.3056
  band No.  band energies     occupation 
      1      -0.2401      2.00000
      2       0.1710      2.00000
      3       0.9843      2.00000
      4       1.3795      2.00000
      5       2.6840      2.00000
      6       3.0753      2.00000
      7       3.8752      2.00000
      8       4.2767      2.00000
      9      11.3353      0.00000
     10      11.6770      0.00000
     11      12.3681      0.00000
     12      12.7306      0.00000
     13      12.8115      0.00000
     14      13.0199      0.00000

 k-point   155 :       0.4722    0.4722    0.3056
  band No.  band energies     occupation 
      1       0.1250      2.00000
      2       0.5337      2.00000
      3       0.5337      2.00000
      4       0.9385      2.00000
      5       3.0306      2.00000
      6       3.4296      2.00000
      7       3.4296      2.00000
      8       3.8307      2.00000
      9      11.6616      0.00000
     10      12.0113      0.00000
     11      12.0113      0.00000
     12      12.3659      0.00000
     13      13.6293      0.00000
     14      13.6742      0.00000

 k-point   156 :       0.3611    0.3611    0.3611
  band No.  band energies     occupation 
      1      -0.9746      2.00000
      2       1.0760      2.00000
      3       1.0760      2.00000
      4       1.0760      2.00000
      5       3.1649      2.00000
      6       3.1649      2.00000
      7       3.1649      2.00000
      8       5.1674      2.04013
      9      11.4259      0.00000
     10      11.4259      0.00000
     11      11.4259      0.00000
     12      12.6529      0.00000
     13      12.6529      0.00000
     14      12.6530      0.00000

 k-point   157 :       0.4167    0.3611    0.3611
  band No.  band energies     occupation 
      1      -0.6529      2.00000
      2       0.5796      2.00000
      3       1.3795      2.00000
      4       1.3795      2.00000
      5       2.6843      2.00000
      6       2.6843      2.00000
      7       3.4745      2.00000
      8       4.6782      2.00000
      9      11.6970      0.00000
     10      11.6970      0.00000
     11      12.4191      0.00000
     12      12.6676      0.00000
     13      12.6676      0.00000
     14      12.9345      0.00000

 k-point   158 :       0.4722    0.3611    0.3611
  band No.  band energies     occupation 
      1      -0.2861      2.00000
      2       0.1250      2.00000
      3       1.6837      2.00000
      4       1.6837      2.00000
      5       2.2915      2.00000
      6       2.2915      2.00000
      7       3.8309      2.00000
      8       4.2325      2.00000
      9      11.9512      0.00000
     10      11.9512      0.00000
     11      12.4607      0.00000
     12      12.4607      0.00000
     13      13.2579      0.00000
     14      13.3835      0.00000

 k-point   159 :       0.4167    0.4167    0.3611
  band No.  band energies     occupation 
      1      -0.3322      2.00000
      2       0.8926      2.00000
      3       0.8926      2.00000
      4       1.6374      2.00000
      5       2.2472      2.00000
      6       2.9862      2.00000
      7       2.9862      2.00000
      8       4.1881      2.00000
      9      11.9847      0.00000
     10      12.6286      0.00000
     11      12.6286      0.00000
     12      12.9968      0.00000
     13      12.9968      0.00000
     14      13.2070      0.00000

 k-point   160 :       0.4722    0.4167    0.3611
  band No.  band energies     occupation 
      1       0.0330      2.00000
      2       0.4419      2.00000
      3       1.2418      2.00000
      4       1.5911      2.00000
      5       2.2029      2.00000
      6       2.5503      2.00000
      7       3.3406      2.00000
      8       3.7418      2.00000
      9      12.2839      0.00000
     10      12.5615      0.00000
     11      13.0792      0.00000
     12      13.1850      0.00000
     13      13.2596      0.00000
     14      13.5435      0.00000

 k-point   161 :       0.4722    0.4722    0.3611
  band No.  band energies     occupation 
      1       0.3959      2.00000
      2       0.8008      2.00000
      3       0.8008      2.00000
      4       1.1958      2.00000
      5       2.5056      2.00000
      6       2.8968      2.00000
      7       2.8968      2.00000
      8       3.2959      2.00000
      9      12.5994      0.00000
     10      12.9143      0.00000
     11      12.9143      0.00000
     12      13.2459      0.00000
     13      13.8169      0.00000
     14      13.8824      0.00000

 k-point   162 :       0.4167    0.4167    0.4167
  band No.  band energies     occupation 
      1      -0.0130      2.00000
      2       1.1958      2.00000
      3       1.1958      2.00000
      4       1.1958      2.00000
      5       2.5057      2.00000
      6       2.5057      2.00000
      7       2.5057      2.00000
      8       3.6973      2.00000
      9      12.9415      0.00000
     10      12.9415      0.00000
     11      12.9415      0.00000
     12      13.4781      0.00000
     13      13.4781      0.00000
     14      13.4782      0.00000

 k-point   163 :       0.4722    0.4167    0.4167
  band No.  band energies     occupation 
      1       0.3500      2.00000
      2       0.7549      2.00000
      3       1.4984      2.00000
      4       1.4984      2.00000
      5       2.1144      2.00000
      6       2.1144      2.00000
      7       2.8521      2.00000
      8       3.2513      2.00000
      9      13.1750      0.00000
     10      13.1751      0.00000
     11      13.5589      0.00000
     12      13.5594      0.00000
     13      13.7788      0.00000
     14      13.8193      0.00000

 k-point   164 :       0.4722    0.4722    0.4167
  band No.  band energies     occupation 
      1       0.7090      2.00000
      2       1.1039      2.00000
      3       1.1039      2.00000
      4       1.4520      2.00000
      5       2.0701      2.00000
      6       2.4163      2.00000
      7       2.4163      2.00000
      8       2.8074      2.00000
      9      13.4929      0.00000
     10      13.7253      0.00000
     11      13.7267      0.00000
     12      14.0192      0.00000
     13      14.0729      0.00000
     14      14.0942      0.00000

 k-point   165 :       0.4722    0.4722    0.4722
  band No.  band energies     occupation 
      1       1.0579      2.00000
      2       1.4056      2.00000
      3       1.4056      2.00000
      4       1.4056      2.00000
      5       2.0258      2.00000
      6       2.0258      2.00000
      7       2.0258      2.00000
      8       2.3716      2.00000
      9      14.2215      0.00000
     10      14.2226      0.00000
     11      14.2755      0.00000
     12      14.2848      0.00000
     13      14.2880      0.00000
     14      14.4519      0.00000


--------------------------------------------------------------------------------------------------------


 soft charge-density along one line, spin component           1
         0         1         2         3         4         5         6         7         8         9
 total charge-density along one line

 pseudopotential strength for first ion, spin component:           1
  8.526  14.535   0.000  -0.000  -0.000   0.000  -0.000  -0.000
 14.535  24.780   0.000  -0.000  -0.000   0.000  -0.000  -0.000
  0.000   0.000   1.978  -0.000  -0.000   5.723  -0.000  -0.000
 -0.000  -0.000  -0.000   1.978   0.000  -0.000   5.723   0.000
 -0.000  -0.000  -0.000   0.000   1.978  -0.000   0.000   5.723
  0.000   0.000   5.723  -0.000  -0.000  16.462  -0.000  -0.000
 -0.000  -0.000  -0.000   5.723   0.000  -0.000  16.462   0.000
 -0.000  -0.000  -0.000   0.000   5.723  -0.000   0.000  16.462
 total augmentation occupancy for first ion, spin component:           1
  2.437  -0.415   0.000  -0.000   0.000   0.000   0.000  -0.000
 -0.415   0.153  -0.000  -0.000  -0.000  -0.000  -0.000   0.000
  0.000  -0.000   0.785   0.000  -0.000  -0.043  -0.000   0.000
 -0.000  -0.000   0.000   0.785   0.000  -0.000  -0.043  -0.000
  0.000  -0.000  -0.000   0.000   0.785   0.000  -0.000  -0.043
  0.000  -0.000  -0.043  -0.000   0.000   0.003   0.000  -0.000
  0.000  -0.000  -0.000  -0.043  -0.000   0.000   0.003   0.000
 -0.000   0.000   0.000  -0.000  -0.043  -0.000   0.000   0.003


------------------------ aborting loop because EDIFF is reached ----------------------------------------


    CHARGE:  cpu time      0.3062: real time      0.1539
    FORLOC:  cpu time      0.0084: real time      0.0045
    FORNL :  cpu time      1.8269: real time      0.9602
    STRESS:  cpu time      5.3698: real time      2.7949
    FORCOR:  cpu time      0.0410: real time      0.0212
    FORHAR:  cpu time      0.0149: real time      0.0069
    MIXING:  cpu time      0.0011: real time      0.0011
    OFIELD:  cpu time      0.0001: real time      0.0000

  FORCE on cell =-STRESS in cart. coord.  units (eV):
  Direction    XX          YY          ZZ          XY          YZ          ZX
  --------------------------------------------------------------------------------------
  Alpha Z    -0.62743    -0.62743    -0.62743
  Ewald     -89.86413   -89.86413   -89.86413    -0.00000     0.00000     0.00000
  Hartree     0.18878     0.18878     0.18878    -0.00000    -0.00000    -0.00000
  E(xc)     -31.86536   -31.86536   -31.86536     0.00000     0.00000     0.00000
  Local      -3.85298    -3.85298    -3.85298    -0.00000    -0.00000     0.00000
  n-local    73.30998    73.59559    74.49843    -0.20924    -0.13087    -0.16910
  augment    -4.89889    -4.89889    -4.89889     0.00000    -0.00000     0.00000
  Kinetic    48.74501    51.12995    54.25772     1.62112    -7.37022    -1.73168
  Fock        0.00000     0.00000     0.00000     0.00000     0.00000     0.00000
  -------------------------------------------------------------------------------------
  Total      -5.74112    -5.74112    -5.74112     0.00000    -0.00000    -0.00000
  in kB    -107.39035  -107.39035  -107.39035     0.00000    -0.00000    -0.00000
  external pressure =     -107.39 kB  Pullay stress =        0.00 kB


 VOLUME and BASIS-vectors are now :
 -----------------------------------------------------------------------------
  energy-cutoff  :      400.00
  volume of cell :       85.65
      direct lattice vectors                 reciprocal lattice vectors
     4.408059122  0.000000000  0.000000000     0.226857211  0.000000000 -0.000000000
    -0.000000000  4.408059122  0.000000000     0.000000000  0.226857211  0.000000000
     0.000000000  0.000000000  4.408059122    -0.000000000 -0.000000000  0.226857211

  length of vectors
     4.408059122  4.408059122  4.408059122     0.226857211  0.226857211  0.226857211


 FORCES acting on ions
    electron-ion (+dipol)            ewald-force                    non-local-force                 convergence-correction
 -----------------------------------------------------------------------------------------------
   0.205E-14 0.886E-15 0.563E-15   -.119E-14 -.183E-16 -.462E-15   -.925E-25 -.677E-25 0.138E-26   0.425E-15 -.531E-16 0.384E-16
   0.127E-14 -.170E-14 -.181E-14   -.114E-14 0.356E-15 0.318E-15   -.683E-25 0.427E-24 -.250E-24   0.364E-15 0.534E-16 -.397E-16
   -.507E-14 0.481E-15 0.660E-14   0.117E-14 -.263E-15 0.315E-15   -.938E-25 0.124E-24 0.163E-24   -.458E-15 -.371E-16 -.370E-16
   -.489E-14 0.935E-14 -.248E-13   0.122E-14 0.111E-15 -.320E-16   -.105E-24 0.126E-24 -.147E-24   -.383E-15 0.335E-16 0.496E-16
 -----------------------------------------------------------------------------------------------
   -.664E-14 0.902E-14 -.195E-13   0.602E-16 0.186E-15 0.139E-15   -.360E-24 0.609E-24 -.232E-24   -.519E-16 -.320E-17 0.112E-16


 POSITION                                       TOTAL-FORCE (eV/Angst)
 -----------------------------------------------------------------------------------
      0.00000      0.00000      0.00000        -0.000000     -0.000000      0.000000
     -0.00000      2.20403      2.20403        -0.000000     -0.000000      0.000000
      2.20403      0.00000      2.20403        -0.000000      0.000000     -0.000000
      2.20403      2.20403      0.00000         0.000000      0.000000     -0.000000
 -----------------------------------------------------------------------------------
    total drift:                               -0.000000      0.000000     -0.000000


--------------------------------------------------------------------------------------------------------



  FREE ENERGIE OF THE ION-ELECTRON SYSTEM (eV)
  ---------------------------------------------------
  free  energy   TOTEN  =       -14.12778444 eV

  energy  without entropy=      -14.12966528  energy(sigma->0) =      -14.12841139



--------------------------------------------------------------------------------------------------------


    POTLOK:  cpu time      0.0540: real time      0.0260


--------------------------------------------------------------------------------------------------------




--------------------------------------------------------------------------------------------------------


  
 reached required accuracy - stopping structural energy minimisation
     LOOP+:  cpu time     99.4556: real time     50.9025
    4ORBIT:  cpu time      0.0000: real time      0.0000

 total amount of memory used by VASP MPI-rank0    38192. kBytes
=======================================================================

   base      :      30000. kBytes
   nonlr-proj:       1199. kBytes
   fftplans  :        717. kBytes
   grid      :       1977. kBytes
   one-center:         12. kBytes
   wavefun   :       4287. kBytes

  
  
 General timing and accounting informations for this job:
 ========================================================
  
                  Total CPU time used (sec):      103.030
                            User time (sec):      101.576
                          System time (sec):        1.454
                         Elapsed time (sec):       54.006
  
                   Maximum memory used (kb):       60936.
                   Average memory used (kb):          N/A
  
                          Minor page faults:        31779
                          Major page faults:           20
                 Voluntary context switches:         2030
