ITEM: TIMESTEP
0
ITEM: NUMBER OF ATOMS
4
ITEM: BOX BOUNDS xy xz yz pp pp pp
0.0000000000000000e+00 4.0167005527999997e+00 0.0000000000000000e+00
0.0000000000000000e+00 4.0369359481000000e+00 0.0000000000000000e+00
0.0000000000000000e+00 4.0369359481000000e+00 0.0000000000000000e+00
ITEM: ATOMS id type xs ys zs fx fy fz
1 1 0 0 0 -1.38778e-17 2.40252e-10 2.40252e-10
4 1 0.5 0 0.5 2.77556e-17 2.40252e-10 -2.40252e-10
3 1 0.5 0.5 0 1.38778e-17 -2.40252e-10 2.40252e-10
2 1 0 0.5 0.5 -1.38778e-17 -2.40252e-10 -2.40252e-10
ITEM: TIMESTEP
1
ITEM: NUMBER OF ATOMS
4
ITEM: BOX BOUNDS xy xz yz pp pp pp
0.0000000000000000e+00 4.0167005527999997e+00 0.0000000000000000e+00
0.0000000000000000e+00 4.0369359481000000e+00 0.0000000000000000e+00
0.0000000000000000e+00 4.0369359481000000e+00 0.0000000000000000e+00
ITEM: ATOMS id type xs ys zs fx fy fz
1 1 0 6.19283e-12 6.19283e-12 2.77556e-17 -2.08628e-16 -1.24236e-16
4 1 0.5 6.19283e-12 0.5 2.77556e-17 -3.45576e-16 3.01997e-16
3 1 0.5 0.5 6.19283e-12 2.77556e-17 2.968e-16 -4.09246e-16
2 1 0 0.5 0.5 0 2.65318e-16 2.87129e-16
