ITEM: TIMESTEP
0
ITEM: NUMBER OF ATOMS
4
ITEM: BOX BOUNDS xy xz yz pp pp pp
0.0000000000000000e+00 4.2431415242000003e+00 0.0000000000000000e+00
0.0000000000000000e+00 4.2431415242000003e+00 0.0000000000000000e+00
0.0000000000000000e+00 4.2431415242000003e+00 0.0000000000000000e+00
ITEM: ATOMS id type xs ys zs fx fy fz
1 1 0 0 0 0 2.77556e-17 0
4 1 0.5 0 0.5 0 2.77556e-17 0
3 1 0.5 0.5 0 0 2.77556e-17 0
2 1 0 0.5 0.5 0 2.77556e-17 0
ITEM: TIMESTEP
1
ITEM: NUMBER OF ATOMS
4
ITEM: BOX BOUNDS xy xz yz pp pp pp
0.0000000000000000e+00 4.2431415242000003e+00 0.0000000000000000e+00
0.0000000000000000e+00 4.2431415242000003e+00 0.0000000000000000e+00
0.0000000000000000e+00 4.2431415242000003e+00 0.0000000000000000e+00
ITEM: ATOMS id type xs ys zs fx fy fz
1 1 0 0 0 0 2.77556e-17 0
4 1 0.5 0 0.5 0 2.77556e-17 0
3 1 0.5 0.5 0 0 2.77556e-17 0
2 1 0 0.5 0.5 0 2.77556e-17 0
