 running   14 mpi-ranks, with    2 threads/rank, on    1 nodes
 distrk:  each k-point on   14 cores,    1 groups
 distr:  one band on    1 cores,   14 groups
 vasp.6.4.2 20Jul23 (build Apr 22 2024 22:35:45) complex                         
 POSCAR found type information on POSCAR Al
 POSCAR found :  1 types and       4 ions
 scaLAPACK will be used
 -----------------------------------------------------------------------------
|                                                                             |
|               ----> ADVICE to this user running VASP <----                  |
|                                                                             |
|     You have a (more or less) 'small supercell' and for smaller cells       |
|     it is recommended to use the reciprocal-space projection scheme!        |
|     The real-space optimization is not efficient for small cells and it     |
|     is also less accurate ...                                               |
|     Therefore, set LREAL=.FALSE. in the INCAR file.                         |
|                                                                             |
 -----------------------------------------------------------------------------

 LDA part: xc-table for Pade appr. of Perdew
 POSCAR, INCAR and KPOINTS ok, starting setup
 FFT: planning ... GRIDC
 FFT: planning ... GRID_SOFT
 FFT: planning ... GRID
 WAVECAR not read
 entering main loop
       N       E                     dE             d eps       ncg     rms          rms(c)
DAV:   1    -0.243486271229E+01   -0.24349E+01   -0.38329E+03 15484   0.521E+02
DAV:   2    -0.150075514929E+02   -0.12573E+02   -0.12233E+02 22862   0.477E+01
DAV:   3    -0.150762650362E+02   -0.68714E-01   -0.68637E-01 20216   0.481E+00
DAV:   4    -0.150764173870E+02   -0.15235E-03   -0.15235E-03 25410   0.223E-01
DAV:   5    -0.150764174805E+02   -0.93510E-07   -0.93234E-07 20300   0.408E-03    0.259E+00
RMM:   6    -0.150245209816E+02    0.51896E-01   -0.54780E-03 15400   0.430E-01    0.152E+00
RMM:   7    -0.149865573705E+02    0.37964E-01   -0.16704E-02 15400   0.719E-01    0.225E-01
RMM:   8    -0.149865267543E+02    0.30616E-04   -0.57501E-04 15400   0.160E-01    0.279E-02
RMM:   9    -0.149865324582E+02   -0.57040E-05   -0.99001E-05 15400   0.688E-02    0.232E-02
RMM:  10    -0.149865335257E+02   -0.10675E-05   -0.22283E-05 15400   0.333E-02    0.219E-02
RMM:  11    -0.149865289948E+02    0.45309E-05   -0.44378E-06 15184   0.129E-02    0.490E-03
RMM:  12    -0.149865289209E+02    0.73910E-07   -0.11883E-06 11451   0.819E-03
   1 F= -.14986529E+02 E0= -.14987271E+02  d E =-.149865E+02
 curvature:   0.00 expect dE= 0.000E+00 dE for cont linesearch  0.000E+00
 trial: gam= 0.00000 g(F)=  0.121E-62 g(S)=  0.000E+00 ort = 0.000E+00 (trialstep = 0.100E+01)
 search vector abs. value=  0.100E-09
 reached required accuracy - stopping structural energy minimisation
