 running   14 mpi-ranks, with    2 threads/rank, on    1 nodes
 distrk:  each k-point on   14 cores,    1 groups
 distr:  one band on    1 cores,   14 groups
 vasp.6.4.2 20Jul23 (build Apr 22 2024 22:35:45) complex                         
 POSCAR found type information on POSCAR Al
 POSCAR found :  1 types and       4 ions
 scaLAPACK will be used
 -----------------------------------------------------------------------------
|                                                                             |
|               ----> ADVICE to this user running VASP <----                  |
|                                                                             |
|     You have a (more or less) 'small supercell' and for smaller cells       |
|     it is recommended to use the reciprocal-space projection scheme!        |
|     The real-space optimization is not efficient for small cells and it     |
|     is also less accurate ...                                               |
|     Therefore, set LREAL=.FALSE. in the INCAR file.                         |
|                                                                             |
 -----------------------------------------------------------------------------

 LDA part: xc-table for Pade appr. of Perdew
 POSCAR, INCAR and KPOINTS ok, starting setup
 FFT: planning ... GRIDC
 FFT: planning ... GRID_SOFT
 FFT: planning ... GRID
 WAVECAR not read
 entering main loop
       N       E                     dE             d eps       ncg     rms          rms(c)
DAV:   1    -0.240408687199E+01   -0.24041E+01   -0.38504E+03  6216   0.522E+02
DAV:   2    -0.150123792368E+02   -0.12608E+02   -0.12291E+02  9142   0.479E+01
DAV:   3    -0.150772227831E+02   -0.64844E-01   -0.64759E-01  8078   0.473E+00
DAV:   4    -0.150773719751E+02   -0.14919E-03   -0.14920E-03 10276   0.224E-01
DAV:   5    -0.150773720536E+02   -0.78534E-07   -0.79314E-07  8162   0.386E-03    0.261E+00
RMM:   6    -0.150252963854E+02    0.52076E-01   -0.53943E-03  6160   0.427E-01    0.153E+00
RMM:   7    -0.149871966171E+02    0.38100E-01   -0.16480E-02  6160   0.714E-01    0.225E-01
RMM:   8    -0.149871665714E+02    0.30046E-04   -0.57797E-04  6160   0.160E-01    0.279E-02
RMM:   9    -0.149871723052E+02   -0.57338E-05   -0.99041E-05  6160   0.690E-02    0.234E-02
RMM:  10    -0.149871733061E+02   -0.10009E-05   -0.22187E-05  6160   0.332E-02    0.227E-02
RMM:  11    -0.149871688473E+02    0.44587E-05   -0.43767E-06  6071   0.128E-02    0.524E-03
RMM:  12    -0.149871687452E+02    0.10208E-06   -0.11716E-06  4568   0.812E-03
   1 F= -.14987169E+02 E0= -.14987966E+02  d E =-.149872E+02
 curvature:   0.00 expect dE= 0.000E+00 dE for cont linesearch  0.000E+00
 trial: gam= 0.00000 g(F)=  0.290E-63 g(S)=  0.882E-33 ort = 0.000E+00 (trialstep = 0.100E+01)
 search vector abs. value=  0.100E-09
 reached required accuracy - stopping structural energy minimisation
