<?xml version="1.0" encoding="ISO-8859-1"?>
<modeling>
 <generator>
  <i name="program" type="string">vasp </i>
  <i name="version" type="string">6.4.2  </i>
  <i name="subversion" type="string">20Jul23 (build Apr 22 2024 22:35:45) complex                          parallel </i>
  <i name="platform" type="string">LinuxGNU </i>
  <i name="date" type="string">2024 05 26 </i>
  <i name="time" type="string">15:49:40 </i>
 </generator>
 <incar>
  <i type="string" name="SYSTEM">Al fcc relaxation</i>
  <i type="string" name="PREC">Accurate</i>
  <i type="string" name="ALGO">Fast</i>
  <i type="int" name="NELM">    60</i>
  <i type="int" name="NELMIN">     4</i>
  <i type="int" name="IBRION">     2</i>
  <i name="EDIFF">      0.00000100</i>
  <i type="int" name="NSW">   100</i>
  <i type="int" name="ISIF">     4</i>
  <i name="ENCUT">    400.00000000</i>
  <i type="string" name="LREAL">Auto</i>
  <i type="int" name="ISMEAR">     1</i>
  <i name="SIGMA">      0.20000000</i>
  <i name="KSPACING">      0.08000000</i>
  <i type="logical" name="LWAVE"> F  </i>
  <i type="logical" name="LCHARG"> F  </i>
 </incar>
 <primitive_cell>
  <structure name="primitive_cell" >
   <crystal>
    <varray name="basis" >
     <v>       2.01946485      -2.01946485       0.00000000 </v>
     <v>       2.01946485       0.00000000       2.01946485 </v>
     <v>       0.00000000      -2.01946485       2.01946485 </v>
    </varray>
    <i name="volume">     16.47171763 </i>
    <varray name="rec_basis" >
     <v>       0.24759035      -0.24759035      -0.24759035 </v>
     <v>       0.24759035       0.24759035       0.24759035 </v>
     <v>      -0.24759035      -0.24759035       0.24759035 </v>
    </varray>
   </crystal>
   <varray name="positions" >
    <v>       0.00000000       0.00000000       0.00000000 </v>
   </varray>
  </structure>
  <varray name="primitive_index" >
   <v type="int" >        1 </v>
  </varray>
 </primitive_cell>
 <kpoints>
  <generation param="Monkhorst-Pack">
   <v type="int" name="divisions">      20       20       20 </v>
   <v name="usershift">      0.00000000       0.00000000       0.00000000 </v>
   <v name="genvec1">      0.05000000      -0.00000000       0.00000000 </v>
   <v name="genvec2">      0.00000000       0.05000000       0.00000000 </v>
   <v name="genvec3">      0.00000000       0.00000000       0.05000000 </v>
   <v name="shift">      0.50000000       0.50000000       0.50000000 </v>
  </generation>
  <varray name="kpointlist" >
   <v>       0.02500000       0.02500000       0.02500000 </v>
   <v>       0.07500000       0.02500000       0.02500000 </v>
   <v>       0.12500000       0.02500000       0.02500000 </v>
   <v>       0.17500000       0.02500000       0.02500000 </v>
   <v>       0.22500000       0.02500000       0.02500000 </v>
   <v>       0.27500000       0.02500000       0.02500000 </v>
   <v>       0.32500000       0.02500000       0.02500000 </v>
   <v>       0.37500000       0.02500000       0.02500000 </v>
   <v>       0.42500000       0.02500000       0.02500000 </v>
   <v>       0.47500000       0.02500000       0.02500000 </v>
   <v>       0.07500000       0.07500000       0.02500000 </v>
   <v>       0.12500000       0.07500000       0.02500000 </v>
   <v>       0.17500000       0.07500000       0.02500000 </v>
   <v>       0.22500000       0.07500000       0.02500000 </v>
   <v>       0.27500000       0.07500000       0.02500000 </v>
   <v>       0.32500000       0.07500000       0.02500000 </v>
   <v>       0.37500000       0.07500000       0.02500000 </v>
   <v>       0.42500000       0.07500000       0.02500000 </v>
   <v>       0.47500000       0.07500000       0.02500000 </v>
   <v>       0.12500000       0.12500000       0.02500000 </v>
   <v>       0.17500000       0.12500000       0.02500000 </v>
   <v>       0.22500000       0.12500000       0.02500000 </v>
   <v>       0.27500000       0.12500000       0.02500000 </v>
   <v>       0.32500000       0.12500000       0.02500000 </v>
   <v>       0.37500000       0.12500000       0.02500000 </v>
   <v>       0.42500000       0.12500000       0.02500000 </v>
   <v>       0.47500000       0.12500000       0.02500000 </v>
   <v>       0.17500000       0.17500000       0.02500000 </v>
   <v>       0.22500000       0.17500000       0.02500000 </v>
   <v>       0.27500000       0.17500000       0.02500000 </v>
   <v>       0.32500000       0.17500000       0.02500000 </v>
   <v>       0.37500000       0.17500000       0.02500000 </v>
   <v>       0.42500000       0.17500000       0.02500000 </v>
   <v>       0.47500000       0.17500000       0.02500000 </v>
   <v>       0.22500000       0.22500000       0.02500000 </v>
   <v>       0.27500000       0.22500000       0.02500000 </v>
   <v>       0.32500000       0.22500000       0.02500000 </v>
   <v>       0.37500000       0.22500000       0.02500000 </v>
   <v>       0.42500000       0.22500000       0.02500000 </v>
   <v>       0.47500000       0.22500000       0.02500000 </v>
   <v>       0.27500000       0.27500000       0.02500000 </v>
   <v>       0.32500000       0.27500000       0.02500000 </v>
   <v>       0.37500000       0.27500000       0.02500000 </v>
   <v>       0.42500000       0.27500000       0.02500000 </v>
   <v>       0.47500000       0.27500000       0.02500000 </v>
   <v>       0.32500000       0.32500000       0.02500000 </v>
   <v>       0.37500000       0.32500000       0.02500000 </v>
   <v>       0.42500000       0.32500000       0.02500000 </v>
   <v>       0.47500000       0.32500000       0.02500000 </v>
   <v>       0.37500000       0.37500000       0.02500000 </v>
   <v>       0.42500000       0.37500000       0.02500000 </v>
   <v>       0.47500000       0.37500000       0.02500000 </v>
   <v>       0.42500000       0.42500000       0.02500000 </v>
   <v>       0.47500000       0.42500000       0.02500000 </v>
   <v>       0.47500000       0.47500000       0.02500000 </v>
   <v>       0.07500000       0.07500000       0.07500000 </v>
   <v>       0.12500000       0.07500000       0.07500000 </v>
   <v>       0.17500000       0.07500000       0.07500000 </v>
   <v>       0.22500000       0.07500000       0.07500000 </v>
   <v>       0.27500000       0.07500000       0.07500000 </v>
   <v>       0.32500000       0.07500000       0.07500000 </v>
   <v>       0.37500000       0.07500000       0.07500000 </v>
   <v>       0.42500000       0.07500000       0.07500000 </v>
   <v>       0.47500000       0.07500000       0.07500000 </v>
   <v>       0.12500000       0.12500000       0.07500000 </v>
   <v>       0.17500000       0.12500000       0.07500000 </v>
   <v>       0.22500000       0.12500000       0.07500000 </v>
   <v>       0.27500000       0.12500000       0.07500000 </v>
   <v>       0.32500000       0.12500000       0.07500000 </v>
   <v>       0.37500000       0.12500000       0.07500000 </v>
   <v>       0.42500000       0.12500000       0.07500000 </v>
   <v>       0.47500000       0.12500000       0.07500000 </v>
   <v>       0.17500000       0.17500000       0.07500000 </v>
   <v>       0.22500000       0.17500000       0.07500000 </v>
   <v>       0.27500000       0.17500000       0.07500000 </v>
   <v>       0.32500000       0.17500000       0.07500000 </v>
   <v>       0.37500000       0.17500000       0.07500000 </v>
   <v>       0.42500000       0.17500000       0.07500000 </v>
   <v>       0.47500000       0.17500000       0.07500000 </v>
   <v>       0.22500000       0.22500000       0.07500000 </v>
   <v>       0.27500000       0.22500000       0.07500000 </v>
   <v>       0.32500000       0.22500000       0.07500000 </v>
   <v>       0.37500000       0.22500000       0.07500000 </v>
   <v>       0.42500000       0.22500000       0.07500000 </v>
   <v>       0.47500000       0.22500000       0.07500000 </v>
   <v>       0.27500000       0.27500000       0.07500000 </v>
   <v>       0.32500000       0.27500000       0.07500000 </v>
   <v>       0.37500000       0.27500000       0.07500000 </v>
   <v>       0.42500000       0.27500000       0.07500000 </v>
   <v>       0.47500000       0.27500000       0.07500000 </v>
   <v>       0.32500000       0.32500000       0.07500000 </v>
   <v>       0.37500000       0.32500000       0.07500000 </v>
   <v>       0.42500000       0.32500000       0.07500000 </v>
   <v>       0.47500000       0.32500000       0.07500000 </v>
   <v>       0.37500000       0.37500000       0.07500000 </v>
   <v>       0.42500000       0.37500000       0.07500000 </v>
   <v>       0.47500000       0.37500000       0.07500000 </v>
   <v>       0.42500000       0.42500000       0.07500000 </v>
   <v>       0.47500000       0.42500000       0.07500000 </v>
   <v>       0.47500000       0.47500000       0.07500000 </v>
   <v>       0.12500000       0.12500000       0.12500000 </v>
   <v>       0.17500000       0.12500000       0.12500000 </v>
   <v>       0.22500000       0.12500000       0.12500000 </v>
   <v>       0.27500000       0.12500000       0.12500000 </v>
   <v>       0.32500000       0.12500000       0.12500000 </v>
   <v>       0.37500000       0.12500000       0.12500000 </v>
   <v>       0.42500000       0.12500000       0.12500000 </v>
   <v>       0.47500000       0.12500000       0.12500000 </v>
   <v>       0.17500000       0.17500000       0.12500000 </v>
   <v>       0.22500000       0.17500000       0.12500000 </v>
   <v>       0.27500000       0.17500000       0.12500000 </v>
   <v>       0.32500000       0.17500000       0.12500000 </v>
   <v>       0.37500000       0.17500000       0.12500000 </v>
   <v>       0.42500000       0.17500000       0.12500000 </v>
   <v>       0.47500000       0.17500000       0.12500000 </v>
   <v>       0.22500000       0.22500000       0.12500000 </v>
   <v>       0.27500000       0.22500000       0.12500000 </v>
   <v>       0.32500000       0.22500000       0.12500000 </v>
   <v>       0.37500000       0.22500000       0.12500000 </v>
   <v>       0.42500000       0.22500000       0.12500000 </v>
   <v>       0.47500000       0.22500000       0.12500000 </v>
   <v>       0.27500000       0.27500000       0.12500000 </v>
   <v>       0.32500000       0.27500000       0.12500000 </v>
   <v>       0.37500000       0.27500000       0.12500000 </v>
   <v>       0.42500000       0.27500000       0.12500000 </v>
   <v>       0.47500000       0.27500000       0.12500000 </v>
   <v>       0.32500000       0.32500000       0.12500000 </v>
   <v>       0.37500000       0.32500000       0.12500000 </v>
   <v>       0.42500000       0.32500000       0.12500000 </v>
   <v>       0.47500000       0.32500000       0.12500000 </v>
   <v>       0.37500000       0.37500000       0.12500000 </v>
   <v>       0.42500000       0.37500000       0.12500000 </v>
   <v>       0.47500000       0.37500000       0.12500000 </v>
   <v>       0.42500000       0.42500000       0.12500000 </v>
   <v>       0.47500000       0.42500000       0.12500000 </v>
   <v>       0.47500000       0.47500000       0.12500000 </v>
   <v>       0.17500000       0.17500000       0.17500000 </v>
   <v>       0.22500000       0.17500000       0.17500000 </v>
   <v>       0.27500000       0.17500000       0.17500000 </v>
   <v>       0.32500000       0.17500000       0.17500000 </v>
   <v>       0.37500000       0.17500000       0.17500000 </v>
   <v>       0.42500000       0.17500000       0.17500000 </v>
   <v>       0.47500000       0.17500000       0.17500000 </v>
   <v>       0.22500000       0.22500000       0.17500000 </v>
   <v>       0.27500000       0.22500000       0.17500000 </v>
   <v>       0.32500000       0.22500000       0.17500000 </v>
   <v>       0.37500000       0.22500000       0.17500000 </v>
   <v>       0.42500000       0.22500000       0.17500000 </v>
   <v>       0.47500000       0.22500000       0.17500000 </v>
   <v>       0.27500000       0.27500000       0.17500000 </v>
   <v>       0.32500000       0.27500000       0.17500000 </v>
   <v>       0.37500000       0.27500000       0.17500000 </v>
   <v>       0.42500000       0.27500000       0.17500000 </v>
   <v>       0.47500000       0.27500000       0.17500000 </v>
   <v>       0.32500000       0.32500000       0.17500000 </v>
   <v>       0.37500000       0.32500000       0.17500000 </v>
   <v>       0.42500000       0.32500000       0.17500000 </v>
   <v>       0.47500000       0.32500000       0.17500000 </v>
   <v>       0.37500000       0.37500000       0.17500000 </v>
   <v>       0.42500000       0.37500000       0.17500000 </v>
   <v>       0.47500000       0.37500000       0.17500000 </v>
   <v>       0.42500000       0.42500000       0.17500000 </v>
   <v>       0.47500000       0.42500000       0.17500000 </v>
   <v>       0.47500000       0.47500000       0.17500000 </v>
   <v>       0.22500000       0.22500000       0.22500000 </v>
   <v>       0.27500000       0.22500000       0.22500000 </v>
   <v>       0.32500000       0.22500000       0.22500000 </v>
   <v>       0.37500000       0.22500000       0.22500000 </v>
   <v>       0.42500000       0.22500000       0.22500000 </v>
   <v>       0.47500000       0.22500000       0.22500000 </v>
   <v>       0.27500000       0.27500000       0.22500000 </v>
   <v>       0.32500000       0.27500000       0.22500000 </v>
   <v>       0.37500000       0.27500000       0.22500000 </v>
   <v>       0.42500000       0.27500000       0.22500000 </v>
   <v>       0.47500000       0.27500000       0.22500000 </v>
   <v>       0.32500000       0.32500000       0.22500000 </v>
   <v>       0.37500000       0.32500000       0.22500000 </v>
   <v>       0.42500000       0.32500000       0.22500000 </v>
   <v>       0.47500000       0.32500000       0.22500000 </v>
   <v>       0.37500000       0.37500000       0.22500000 </v>
   <v>       0.42500000       0.37500000       0.22500000 </v>
   <v>       0.47500000       0.37500000       0.22500000 </v>
   <v>       0.42500000       0.42500000       0.22500000 </v>
   <v>       0.47500000       0.42500000       0.22500000 </v>
   <v>       0.47500000       0.47500000       0.22500000 </v>
   <v>       0.27500000       0.27500000       0.27500000 </v>
   <v>       0.32500000       0.27500000       0.27500000 </v>
   <v>       0.37500000       0.27500000       0.27500000 </v>
   <v>       0.42500000       0.27500000       0.27500000 </v>
   <v>       0.47500000       0.27500000       0.27500000 </v>
   <v>       0.32500000       0.32500000       0.27500000 </v>
   <v>       0.37500000       0.32500000       0.27500000 </v>
   <v>       0.42500000       0.32500000       0.27500000 </v>
   <v>       0.47500000       0.32500000       0.27500000 </v>
   <v>       0.37500000       0.37500000       0.27500000 </v>
   <v>       0.42500000       0.37500000       0.27500000 </v>
   <v>       0.47500000       0.37500000       0.27500000 </v>
   <v>       0.42500000       0.42500000       0.27500000 </v>
   <v>       0.47500000       0.42500000       0.27500000 </v>
   <v>       0.47500000       0.47500000       0.27500000 </v>
   <v>       0.32500000       0.32500000       0.32500000 </v>
   <v>       0.37500000       0.32500000       0.32500000 </v>
   <v>       0.42500000       0.32500000       0.32500000 </v>
   <v>       0.47500000       0.32500000       0.32500000 </v>
   <v>       0.37500000       0.37500000       0.32500000 </v>
   <v>       0.42500000       0.37500000       0.32500000 </v>
   <v>       0.47500000       0.37500000       0.32500000 </v>
   <v>       0.42500000       0.42500000       0.32500000 </v>
   <v>       0.47500000       0.42500000       0.32500000 </v>
   <v>       0.47500000       0.47500000       0.32500000 </v>
   <v>       0.37500000       0.37500000       0.37500000 </v>
   <v>       0.42500000       0.37500000       0.37500000 </v>
   <v>       0.47500000       0.37500000       0.37500000 </v>
   <v>       0.42500000       0.42500000       0.37500000 </v>
   <v>       0.47500000       0.42500000       0.37500000 </v>
   <v>       0.47500000       0.47500000       0.37500000 </v>
   <v>       0.42500000       0.42500000       0.42500000 </v>
   <v>       0.47500000       0.42500000       0.42500000 </v>
   <v>       0.47500000       0.47500000       0.42500000 </v>
   <v>       0.47500000       0.47500000       0.47500000 </v>
  </varray>
  <varray name="weights" >
   <v>       0.00100000 </v>
   <v>       0.00300000 </v>
   <v>       0.00300000 </v>
   <v>       0.00300000 </v>
   <v>       0.00300000 </v>
   <v>       0.00300000 </v>
   <v>       0.00300000 </v>
   <v>       0.00300000 </v>
   <v>       0.00300000 </v>
   <v>       0.00300000 </v>
   <v>       0.00300000 </v>
   <v>       0.00600000 </v>
   <v>       0.00600000 </v>
   <v>       0.00600000 </v>
   <v>       0.00600000 </v>
   <v>       0.00600000 </v>
   <v>       0.00600000 </v>
   <v>       0.00600000 </v>
   <v>       0.00600000 </v>
   <v>       0.00300000 </v>
   <v>       0.00600000 </v>
   <v>       0.00600000 </v>
   <v>       0.00600000 </v>
   <v>       0.00600000 </v>
   <v>       0.00600000 </v>
   <v>       0.00600000 </v>
   <v>       0.00600000 </v>
   <v>       0.00300000 </v>
   <v>       0.00600000 </v>
   <v>       0.00600000 </v>
   <v>       0.00600000 </v>
   <v>       0.00600000 </v>
   <v>       0.00600000 </v>
   <v>       0.00600000 </v>
   <v>       0.00300000 </v>
   <v>       0.00600000 </v>
   <v>       0.00600000 </v>
   <v>       0.00600000 </v>
   <v>       0.00600000 </v>
   <v>       0.00600000 </v>
   <v>       0.00300000 </v>
   <v>       0.00600000 </v>
   <v>       0.00600000 </v>
   <v>       0.00600000 </v>
   <v>       0.00600000 </v>
   <v>       0.00300000 </v>
   <v>       0.00600000 </v>
   <v>       0.00600000 </v>
   <v>       0.00600000 </v>
   <v>       0.00300000 </v>
   <v>       0.00600000 </v>
   <v>       0.00600000 </v>
   <v>       0.00300000 </v>
   <v>       0.00600000 </v>
   <v>       0.00300000 </v>
   <v>       0.00100000 </v>
   <v>       0.00300000 </v>
   <v>       0.00300000 </v>
   <v>       0.00300000 </v>
   <v>       0.00300000 </v>
   <v>       0.00300000 </v>
   <v>       0.00300000 </v>
   <v>       0.00300000 </v>
   <v>       0.00300000 </v>
   <v>       0.00300000 </v>
   <v>       0.00600000 </v>
   <v>       0.00600000 </v>
   <v>       0.00600000 </v>
   <v>       0.00600000 </v>
   <v>       0.00600000 </v>
   <v>       0.00600000 </v>
   <v>       0.00600000 </v>
   <v>       0.00300000 </v>
   <v>       0.00600000 </v>
   <v>       0.00600000 </v>
   <v>       0.00600000 </v>
   <v>       0.00600000 </v>
   <v>       0.00600000 </v>
   <v>       0.00600000 </v>
   <v>       0.00300000 </v>
   <v>       0.00600000 </v>
   <v>       0.00600000 </v>
   <v>       0.00600000 </v>
   <v>       0.00600000 </v>
   <v>       0.00600000 </v>
   <v>       0.00300000 </v>
   <v>       0.00600000 </v>
   <v>       0.00600000 </v>
   <v>       0.00600000 </v>
   <v>       0.00600000 </v>
   <v>       0.00300000 </v>
   <v>       0.00600000 </v>
   <v>       0.00600000 </v>
   <v>       0.00600000 </v>
   <v>       0.00300000 </v>
   <v>       0.00600000 </v>
   <v>       0.00600000 </v>
   <v>       0.00300000 </v>
   <v>       0.00600000 </v>
   <v>       0.00300000 </v>
   <v>       0.00100000 </v>
   <v>       0.00300000 </v>
   <v>       0.00300000 </v>
   <v>       0.00300000 </v>
   <v>       0.00300000 </v>
   <v>       0.00300000 </v>
   <v>       0.00300000 </v>
   <v>       0.00300000 </v>
   <v>       0.00300000 </v>
   <v>       0.00600000 </v>
   <v>       0.00600000 </v>
   <v>       0.00600000 </v>
   <v>       0.00600000 </v>
   <v>       0.00600000 </v>
   <v>       0.00600000 </v>
   <v>       0.00300000 </v>
   <v>       0.00600000 </v>
   <v>       0.00600000 </v>
   <v>       0.00600000 </v>
   <v>       0.00600000 </v>
   <v>       0.00600000 </v>
   <v>       0.00300000 </v>
   <v>       0.00600000 </v>
   <v>       0.00600000 </v>
   <v>       0.00600000 </v>
   <v>       0.00600000 </v>
   <v>       0.00300000 </v>
   <v>       0.00600000 </v>
   <v>       0.00600000 </v>
   <v>       0.00600000 </v>
   <v>       0.00300000 </v>
   <v>       0.00600000 </v>
   <v>       0.00600000 </v>
   <v>       0.00300000 </v>
   <v>       0.00600000 </v>
   <v>       0.00300000 </v>
   <v>       0.00100000 </v>
   <v>       0.00300000 </v>
   <v>       0.00300000 </v>
   <v>       0.00300000 </v>
   <v>       0.00300000 </v>
   <v>       0.00300000 </v>
   <v>       0.00300000 </v>
   <v>       0.00300000 </v>
   <v>       0.00600000 </v>
   <v>       0.00600000 </v>
   <v>       0.00600000 </v>
   <v>       0.00600000 </v>
   <v>       0.00600000 </v>
   <v>       0.00300000 </v>
   <v>       0.00600000 </v>
   <v>       0.00600000 </v>
   <v>       0.00600000 </v>
   <v>       0.00600000 </v>
   <v>       0.00300000 </v>
   <v>       0.00600000 </v>
   <v>       0.00600000 </v>
   <v>       0.00600000 </v>
   <v>       0.00300000 </v>
   <v>       0.00600000 </v>
   <v>       0.00600000 </v>
   <v>       0.00300000 </v>
   <v>       0.00600000 </v>
   <v>       0.00300000 </v>
   <v>       0.00100000 </v>
   <v>       0.00300000 </v>
   <v>       0.00300000 </v>
   <v>       0.00300000 </v>
   <v>       0.00300000 </v>
   <v>       0.00300000 </v>
   <v>       0.00300000 </v>
   <v>       0.00600000 </v>
   <v>       0.00600000 </v>
   <v>       0.00600000 </v>
   <v>       0.00600000 </v>
   <v>       0.00300000 </v>
   <v>       0.00600000 </v>
   <v>       0.00600000 </v>
   <v>       0.00600000 </v>
   <v>       0.00300000 </v>
   <v>       0.00600000 </v>
   <v>       0.00600000 </v>
   <v>       0.00300000 </v>
   <v>       0.00600000 </v>
   <v>       0.00300000 </v>
   <v>       0.00100000 </v>
   <v>       0.00300000 </v>
   <v>       0.00300000 </v>
   <v>       0.00300000 </v>
   <v>       0.00300000 </v>
   <v>       0.00300000 </v>
   <v>       0.00600000 </v>
   <v>       0.00600000 </v>
   <v>       0.00600000 </v>
   <v>       0.00300000 </v>
   <v>       0.00600000 </v>
   <v>       0.00600000 </v>
   <v>       0.00300000 </v>
   <v>       0.00600000 </v>
   <v>       0.00300000 </v>
   <v>       0.00100000 </v>
   <v>       0.00300000 </v>
   <v>       0.00300000 </v>
   <v>       0.00300000 </v>
   <v>       0.00300000 </v>
   <v>       0.00600000 </v>
   <v>       0.00600000 </v>
   <v>       0.00300000 </v>
   <v>       0.00600000 </v>
   <v>       0.00300000 </v>
   <v>       0.00100000 </v>
   <v>       0.00300000 </v>
   <v>       0.00300000 </v>
   <v>       0.00300000 </v>
   <v>       0.00600000 </v>
   <v>       0.00300000 </v>
   <v>       0.00100000 </v>
   <v>       0.00300000 </v>
   <v>       0.00300000 </v>
   <v>       0.00100000 </v>
  </varray>
 </kpoints>
 <parameters>
  <separator name="general" >
   <i type="string" name="SYSTEM">Al fcc relaxation</i>
   <i type="logical" name="LCOMPAT"> F  </i>
  </separator>
  <separator name="electronic" >
   <i type="string" name="PREC">accura</i>
   <i name="ENMAX">    400.00000000</i>
   <i name="ENAUG">    291.05200000</i>
   <i name="EDIFF">      0.00000100</i>
   <i type="int" name="IALGO">    68</i>
   <i type="int" name="IWAVPR">    11</i>
   <i type="int" name="NBANDS">    14</i>
   <i type="int" name="NBANDSLOW">    -1</i>
   <i type="int" name="NBANDSHIGH">    -1</i>
   <i name="NELECT">     12.00000000</i>
   <i type="int" name="TURBO">     0</i>
   <i type="int" name="IRESTART">     0</i>
   <i type="int" name="NREBOOT">     0</i>
   <i type="int" name="NMIN">     0</i>
   <i name="EREF">      0.00000000</i>
   <separator name="electronic smearing" >
    <i type="int" name="ISMEAR">     1</i>
    <i name="SIGMA">      0.20000000</i>
    <i name="KSPACING">      0.08000000</i>
    <i type="logical" name="KGAMMA"> T  </i>
    <i type="logical" name="KBLOWUP"> T  </i>
   </separator>
   <separator name="electronic projectors" >
    <i type="logical" name="LREAL"> T  </i>
    <v name="ROPT">     -0.00025000</v>
    <i type="int" name="LMAXPAW">  -100</i>
    <i type="int" name="LMAXMIX">     2</i>
    <i type="logical" name="NLSPLINE"> F  </i>
   </separator>
   <separator name="electronic startup" >
    <i type="int" name="ISTART">     0</i>
    <i type="int" name="ICHARG">     2</i>
    <i type="int" name="INIWAV">     1</i>
   </separator>
   <separator name="electronic spin" >
    <i type="int" name="ISPIN">     1</i>
    <i type="logical" name="LNONCOLLINEAR"> F  </i>
    <v name="MAGMOM">      1.00000000      1.00000000      1.00000000      1.00000000</v>
    <i name="NUPDOWN">     -1.00000000</i>
    <i type="logical" name="LSORBIT"> F  </i>
    <v name="SAXIS">      0.00000000      0.00000000      1.00000000</v>
    <i type="logical" name="LSPIRAL"> F  </i>
    <v name="QSPIRAL">      0.00000000      0.00000000      0.00000000</v>
    <i type="logical" name="LZEROZ"> F  </i>
   </separator>
   <separator name="electronic exchange-correlation" >
    <i type="logical" name="LASPH"> F  </i>
    <i type="logical" name="LMETAGGA"> F  </i>
   </separator>
   <separator name="electronic convergence" >
    <i type="int" name="NELM">    60</i>
    <i type="int" name="NELMDL">    -5</i>
    <i type="int" name="NELMIN">     4</i>
    <i name="ENINI">    400.00000000</i>
    <separator name="electronic convergence detail" >
     <i type="logical" name="LDIAG"> T  </i>
     <i type="logical" name="LSUBROT"> F  </i>
     <i name="WEIMIN">      0.00100000</i>
     <i name="EBREAK">      0.00000002</i>
     <i name="DEPER">      0.30000000</i>
     <i type="int" name="NRMM">     4</i>
     <i name="TIME">      0.40000000</i>
    </separator>
   </separator>
   <separator name="electronic mixer" >
    <i name="AMIX">      0.40000000</i>
    <i name="BMIX">      1.00000000</i>
    <i name="AMIN">      0.10000000</i>
    <i name="AMIX_MAG">      1.60000000</i>
    <i name="BMIX_MAG">      1.00000000</i>
    <separator name="electronic mixer details" >
     <i type="int" name="IMIX">     4</i>
     <i type="logical" name="MIXFIRST"> F  </i>
     <i type="int" name="MAXMIX">   -45</i>
     <i name="WC">    100.00000000</i>
     <i type="int" name="INIMIX">     1</i>
     <i type="int" name="MIXPRE">     1</i>
     <i type="int" name="MREMOVE">     5</i>
    </separator>
   </separator>
   <separator name="electronic dipolcorrection" >
    <i type="logical" name="LDIPOL"> F  </i>
    <i type="logical" name="LMONO"> F  </i>
    <i type="int" name="IDIPOL">     0</i>
    <i name="EPSILON">      1.00000000</i>
    <v name="DIPOL">   -100.00000000   -100.00000000   -100.00000000</v>
    <i name="EFIELD">      0.00000000</i>
   </separator>
  </separator>
  <separator name="grids" >
   <i type="int" name="NGX">    28</i>
   <i type="int" name="NGY">    28</i>
   <i type="int" name="NGZ">    28</i>
   <i type="int" name="NGXF">    56</i>
   <i type="int" name="NGYF">    56</i>
   <i type="int" name="NGZF">    56</i>
   <i type="logical" name="ADDGRID"> F  </i>
  </separator>
  <separator name="ionic" >
   <i type="int" name="NSW">   100</i>
   <i type="int" name="IBRION">     2</i>
   <i type="int" name="MDALGO">     0</i>
   <i type="int" name="ISIF">     4</i>
   <i name="PSTRESS">      0.00000000</i>
   <i name="EDIFFG">      0.00001000</i>
   <i type="int" name="NFREE">     1</i>
   <i name="POTIM">      0.50000000</i>
   <i name="SMASS">     -3.00000000</i>
   <i name="SCALEE">      1.00000000</i>
  </separator>
  <separator name="ionic md" >
   <i name="TEBEG">      0.00010000</i>
   <i name="TEEND">      0.00010000</i>
   <i type="int" name="NBLOCK">     1</i>
   <i type="int" name="KBLOCK">   100</i>
   <i type="int" name="NPACO">   256</i>
   <i name="APACO">     10.00000000</i>
  </separator>
  <separator name="symmetry" >
   <i type="int" name="ISYM">     2</i>
   <i name="SYMPREC">      0.00001000</i>
  </separator>
  <separator name="dos" >
   <i type="int" name="LORBIT">     0</i>
   <v name="RWIGS">     -1.00000000</v>
   <i type="int" name="NEDOS">   301</i>
   <i name="EMIN">     10.00000000</i>
   <i name="EMAX">    -10.00000000</i>
   <i name="EFERMI">      0.00000000</i>
  </separator>
  <separator name="writing" >
   <i type="int" name="NWRITE">     2</i>
   <i type="logical" name="LWAVE"> F  </i>
   <i type="logical" name="LDOWNSAMPLE"> F  </i>
   <i type="logical" name="LCHARG"> F  </i>
   <i type="logical" name="LPARD"> F  </i>
   <i type="logical" name="LVTOT"> F  </i>
   <i type="logical" name="LVHAR"> F  </i>
   <i type="logical" name="LELF"> F  </i>
   <i type="logical" name="LOPTICS"> F  </i>
   <v name="STM">      0.00000000      0.00000000      0.00000000      0.00000000      0.00000000      0.00000000      0.00000000</v>
  </separator>
  <separator name="performance" >
   <i type="int" name="NPAR">    14</i>
   <i type="int" name="NSIM">     4</i>
   <i type="int" name="NBLK">    -1</i>
   <i type="logical" name="LPLANE"> T  </i>
   <i type="logical" name="LSCALAPACK"> T  </i>
   <i type="logical" name="LSCAAWARE"> F  </i>
   <i type="logical" name="LSCALU"> F  </i>
   <i type="logical" name="LASYNC"> F  </i>
   <i type="logical" name="LORBITALREAL"> F  </i>
  </separator>
  <separator name="miscellaneous" >
   <i type="int" name="IDIOT">     3</i>
   <i type="int" name="PHON_NSTRUCT">    -1</i>
   <i type="logical" name="LMUSIC"> F  </i>
   <v name="POMASS">     26.98100000</v>
   <v name="DARWINR">      0.00000000</v>
   <v name="DARWINV">      1.00000000</v>
   <i type="logical" name="LCORR"> T  </i>
  </separator>
  <i type="logical" name="GGA_COMPAT"> T  </i>
  <i type="logical" name="LBERRY"> F  </i>
  <i type="int" name="ICORELEVEL">     0</i>
  <i type="logical" name="LDAU"> F  </i>
  <i type="int" name="I_CONSTRAINED_M">     0</i>
  <separator name="electronic exchange-correlation" >
   <i type="string" name="GGA">--</i>
   <i type="int" name="VOSKOWN">     0</i>
   <i type="logical" name="LHFCALC"> F  </i>
   <i type="string" name="PRECFOCK"></i>
   <i type="logical" name="LSYMGRAD"> F  </i>
   <i type="logical" name="LHFONE"> F  </i>
   <i type="logical" name="LRHFCALC"> F  </i>
   <i type="logical" name="LTHOMAS"> F  </i>
   <i type="logical" name="LMODELHF"> F  </i>
   <i type="logical" name="LFOCKACE"> F  </i>
   <i name="ENCUT4O">     -1.00000000</i>
   <i type="int" name="EXXOEP">     0</i>
   <i type="int" name="FOURORBIT">     0</i>
   <i name="AEXX">      0.00000000</i>
   <i name="HFALPHA">      0.00000000</i>
   <i name="MCALPHA">      0.00000000</i>
   <i name="ALDAX">      1.00000000</i>
   <i name="AGGAX">      1.00000000</i>
   <i name="ALDAC">      1.00000000</i>
   <i name="AGGAC">      1.00000000</i>
   <i type="int" name="NKREDX">     1</i>
   <i type="int" name="NKREDY">     1</i>
   <i type="int" name="NKREDZ">     1</i>
   <i type="logical" name="SHIFTRED"> F  </i>
   <i type="logical" name="ODDONLY"> F  </i>
   <i type="logical" name="EVENONLY"> F  </i>
   <i type="int" name="LMAXFOCK">     0</i>
   <i type="int" name="NMAXFOCKAE">     0</i>
   <i type="logical" name="LFOCKAEDFT"> F  </i>
   <i name="HFSCREEN">      0.00000000</i>
   <i name="HFSCREENC">      0.00000000</i>
   <i type="int" name="NBANDSGWLOW">     0</i>
  </separator>
  <separator name="vdW DFT" >
   <i type="logical" name="LUSE_VDW"> F  </i>
   <i type="int" name="IVDW_NL">     1</i>
   <i type="logical" name="LSPIN_VDW"> F  </i>
   <i name="Zab_VDW">     -0.84910000</i>
   <i name="PARAM1">      0.12340000</i>
   <i name="PARAM2">      1.00000000</i>
   <i name="PARAM3">      0.00000000</i>
  </separator>
  <separator name="model GW" >
   <i type="int" name="MODEL_GW">     0</i>
   <i name="MODEL_EPS0">      9.88303058</i>
   <i name="MODEL_ALPHA">      1.00000000</i>
  </separator>
  <separator name="linear response parameters" >
   <i type="logical" name="LEPSILON"> F  </i>
   <i type="logical" name="LRPA"> F  </i>
   <i type="logical" name="LNABLA"> F  </i>
   <i type="logical" name="LVEL"> F  </i>
   <i name="CSHIFT">      0.10000000</i>
   <i name="OMEGAMAX">     -1.00000000</i>
   <i name="DEG_THRESHOLD">      0.00200000</i>
   <i name="RTIME">     -0.10000000</i>
   <i name="WPLASMAI">      0.00000000</i>
   <v name="DFIELD">      0.00000000      0.00000000      0.00000000</v>
   <v name="WPLASMA">      0.00000000      0.00000000      0.00000000      0.00000000      0.00000000      0.00000000      0.00000000      0.00000000      0.00000000</v>
  </separator>
  <separator name="orbital magnetization" >
   <i type="logical" name="NUCIND"> F  </i>
   <v name="MAGPOS">      0.00000000      0.00000000      0.00000000</v>
   <i type="logical" name="LNICSALL"> T  </i>
   <i type="logical" name="ORBITALMAG"> F  </i>
   <i type="logical" name="LMAGBLOCH"> F  </i>
   <i type="logical" name="LCHIMAG"> F  </i>
   <i type="logical" name="LGAUGE"> T  </i>
   <i type="int" name="MAGATOM">     0</i>
   <v name="MAGDIPOL">      0.00000000      0.00000000      0.00000000</v>
   <v name="AVECCONST">      0.00000000      0.00000000      0.00000000</v>
  </separator>
  <separator name="response functions" >
   <i type="logical" name="LALL_IN_ONE"> F  </i>
   <i type="int" name="IALL_IN_ONE">    -1</i>
   <i type="int" name="NBANDS_WAVE">    -1</i>
   <i type="logical" name="LFINITE_TEMPERATURE"> F  </i>
   <i type="logical" name="LADDER"> F  </i>
   <i type="logical" name="LRPAFORCE"> F  </i>
   <i type="logical" name="LFXC"> F  </i>
   <i type="logical" name="LHARTREE"> T  </i>
   <i type="int" name="IBSE">     0</i>
   <v type="int" name="KPOINT">    -1     0     0     0</v>
   <i type="logical" name="LTCTC"> F  </i>
   <i type="logical" name="LTCTE"> F  </i>
   <i type="logical" name="LTETE"> F  </i>
   <i type="logical" name="LTRIPLET"> F  </i>
   <i type="logical" name="LFXCEPS"> F  </i>
   <i type="logical" name="LFXHEG"> F  </i>
   <i type="int" name="NATURALO">     2</i>
   <i type="logical" name="LHOLEGF"> F  </i>
   <i type="logical" name="L2ORDER"> F  </i>
   <i type="logical" name="LDMP1"> F  </i>
   <i type="logical" name="LMP2LT"> F  </i>
   <i type="logical" name="LSMP2LT"> F  </i>
   <i type="logical" name="LGWLF"> F  </i>
   <i name="ENCUTGW">     -1.60000002</i>
   <i name="ENCUTGWSOFT">     -1.60000002</i>
   <i name="ENCUTLF">     -1.00000000</i>
   <i type="logical" name="LESF_SPLINES"> F  </i>
   <i type="int" name="LMAXMP2">    -1</i>
   <i name="SCISSOR">      0.00000000</i>
   <i type="int" name="NOMEGA">     0</i>
   <i type="int" name="NOMEGAR">     0</i>
   <i type="int" name="NBANDSGW">    -1</i>
   <i type="int" name="NBANDSO">    -1</i>
   <i type="int" name="NBANDSV">    -1</i>
   <i type="int" name="NELMGW">     1</i>
   <i type="int" name="NELMHF">     1</i>
   <i type="int" name="DIM">     3</i>
   <i type="int" name="IESPILON">     4</i>
   <i type="int" name="ANTIRES">     0</i>
   <i name="OMEGAMAX">    -30.00000000</i>
   <i name="OMEGAMIN">    -30.00000000</i>
   <i name="OMEGATL">   -200.00000000</i>
   <i type="int" name="OMEGAGRID">     0</i>
   <i name="CSHIFT">     -0.10000000</i>
   <i type="logical" name="LSELFENERGY"> F  </i>
   <i type="logical" name="LSPECTRAL"> F  </i>
   <i type="logical" name="LSPECTRALGW"> F  </i>
   <i type="logical" name="LSINGLES"> F  </i>
   <i type="logical" name="LFERMIGW"> F  </i>
   <i type="logical" name="ODDONLYGW"> F  </i>
   <i type="logical" name="EVENONLYGW"> F  </i>
   <i type="int" name="NKREDLFX">     1</i>
   <i type="int" name="NKREDLFY">     1</i>
   <i type="int" name="NKREDLFZ">     1</i>
   <i type="int" name="MAXMEM">  2800</i>
   <i type="int" name="TELESCOPE">     0</i>
   <i type="int" name="NTAUPAR">    -1</i>
   <i type="int" name="NOMEGAPAR">    -1</i>
   <i name="DAMP_NEWTON">      0.80000001</i>
   <i name="LAMBDA">      1.00000000</i>
  </separator>
  <separator name="External order field" >
   <i name="OFIELD_KAPPA">      0.00000000</i>
   <v name="OFIELD_K">      0.00000000      0.00000000      0.00000000</v>
   <i name="OFIELD_Q6_NEAR">      0.00000000</i>
   <i name="OFIELD_Q6_FAR">      0.00000000</i>
   <i name="OFIELD_A">      0.00000000</i>
  </separator>
  <separator name="optional k-points parameters" >
   <i type="int" name="KPOINTS_OPT_MODE">     1</i>
   <i type="logical" name="LKPOINTS_OPT"> F  </i>
  </separator>
 </parameters>
 <atominfo>
  <atoms>       4 </atoms>
  <types>       1 </types>
  <array name="atoms" >
   <dimension dim="1">ion</dimension>
   <field type="string">element</field>
   <field type="int">atomtype</field>
   <set>
    <rc><c>Al</c><c>   1</c></rc>
    <rc><c>Al</c><c>   1</c></rc>
    <rc><c>Al</c><c>   1</c></rc>
    <rc><c>Al</c><c>   1</c></rc>
   </set>
  </array>
  <array name="atomtypes" >
   <dimension dim="1">type</dimension>
   <field type="int">atomspertype</field>
   <field type="string">element</field>
   <field>mass</field>
   <field>valence</field>
   <field type="string">pseudopotential</field>
   <set>
    <rc><c>   4</c><c>Al</c><c>     26.98100000</c><c>      3.00000000</c><c>  PAW_PBE Al 04Jan2001                  </c></rc>
   </set>
  </array>
 </atominfo>
 <structure name="initialpos" >
  <crystal>
   <varray name="basis" >
    <v>       4.03892969       0.00000000       0.00000000 </v>
    <v>      -0.00000000       4.03892969       0.00000000 </v>
    <v>       0.00000000       0.00000000       4.03892969 </v>
   </varray>
   <i name="volume">     65.88687052 </i>
   <varray name="rec_basis" >
    <v>       0.24759035       0.00000000      -0.00000000 </v>
    <v>       0.00000000       0.24759035       0.00000000 </v>
    <v>      -0.00000000      -0.00000000       0.24759035 </v>
   </varray>
  </crystal>
  <varray name="positions" >
   <v>       0.00000000       0.00000000       0.00000000 </v>
   <v>       0.00000000       0.50000000       0.50000000 </v>
   <v>       0.50000000       0.00000000       0.50000000 </v>
   <v>       0.50000000       0.50000000       0.00000000 </v>
  </varray>
 </structure>
 <calculation>
  <scstep>
   <time name="dav">   10.96    5.49</time>
   <time name="total">   11.01    5.52</time>
   <energy>
    <i name="alphaZ">     -0.81565505 </i>
    <i name="ewald">   -294.23109286 </i>
    <i name="hartreedc">     -0.40304679 </i>
    <i name="XCdc">   -104.94661528 </i>
    <i name="pawpsdc">    264.80062850 </i>
    <i name="pawaedc">   -136.98248303 </i>
    <i name="eentropy">      0.00161115 </i>
    <i name="bandstr">     56.01994920 </i>
    <i name="atom">    214.15261729 </i>
    <i name="e_fr_energy">     -2.40408687 </i>
    <i name="e_wo_entrp">     -2.40569802 </i>
    <i name="e_0_energy">     -2.40462392 </i>
   </energy>
  </scstep>
  <scstep>
   <time name="dav">   15.38    7.70</time>
   <time name="total">   15.39    7.70</time>
   <energy>
    <i name="e_fr_energy">    -15.01237924 </i>
    <i name="e_wo_entrp">    -15.01461472 </i>
    <i name="e_0_energy">    -15.01312440 </i>
   </energy>
  </scstep>
  <scstep>
   <time name="dav">   14.09    7.06</time>
   <time name="total">   14.09    7.06</time>
   <energy>
    <i name="e_fr_energy">    -15.07722278 </i>
    <i name="e_wo_entrp">    -15.07954423 </i>
    <i name="e_0_energy">    -15.07799660 </i>
   </energy>
  </scstep>
  <scstep>
   <time name="dav">   17.87    8.95</time>
   <time name="total">   17.87    8.95</time>
   <energy>
    <i name="e_fr_energy">    -15.07737198 </i>
    <i name="e_wo_entrp">    -15.07969547 </i>
    <i name="e_0_energy">    -15.07814647 </i>
   </energy>
  </scstep>
  <scstep>
   <time name="dav">   14.76    7.39</time>
   <time name="total">   15.14    7.58</time>
   <energy>
    <i name="e_fr_energy">    -15.07737205 </i>
    <i name="e_wo_entrp">    -15.07969554 </i>
    <i name="e_0_energy">    -15.07814655 </i>
   </energy>
  </scstep>
  <scstep>
   <time name="diag">    1.73    0.87</time>
   <time name="diis">    3.41    1.81</time>
   <time name="orth">    0.12    0.06</time>
   <time name="total">    5.67    2.95</time>
   <energy>
    <i name="e_fr_energy">    -15.02529639 </i>
    <i name="e_wo_entrp">    -15.02765339 </i>
    <i name="e_0_energy">    -15.02608206 </i>
   </energy>
  </scstep>
  <scstep>
   <time name="diag">    2.00    1.02</time>
   <time name="diis">    3.43    1.81</time>
   <time name="orth">    0.12    0.06</time>
   <time name="total">    5.99    3.11</time>
   <energy>
    <i name="e_fr_energy">    -14.98719662 </i>
    <i name="e_wo_entrp">    -14.98958802 </i>
    <i name="e_0_energy">    -14.98799375 </i>
   </energy>
  </scstep>
  <scstep>
   <time name="diag">    1.70    0.85</time>
   <time name="diis">    3.45    1.83</time>
   <time name="orth">    0.13    0.06</time>
   <time name="total">    5.69    2.95</time>
   <energy>
    <i name="e_fr_energy">    -14.98716657 </i>
    <i name="e_wo_entrp">    -14.98955816 </i>
    <i name="e_0_energy">    -14.98796377 </i>
   </energy>
  </scstep>
  <scstep>
   <time name="diag">    1.70    0.85</time>
   <time name="diis">    3.49    1.88</time>
   <time name="orth">    0.12    0.06</time>
   <time name="total">    5.73    3.00</time>
   <energy>
    <i name="e_fr_energy">    -14.98717231 </i>
    <i name="e_wo_entrp">    -14.98956415 </i>
    <i name="e_0_energy">    -14.98796959 </i>
   </energy>
  </scstep>
  <scstep>
   <time name="diag">    1.73    0.86</time>
   <time name="diis">    3.44    1.83</time>
   <time name="orth">    0.12    0.06</time>
   <time name="total">    5.70    2.96</time>
   <energy>
    <i name="e_fr_energy">    -14.98717331 </i>
    <i name="e_wo_entrp">    -14.98956513 </i>
    <i name="e_0_energy">    -14.98797058 </i>
   </energy>
  </scstep>
  <scstep>
   <time name="diag">    1.70    0.85</time>
   <time name="diis">    3.31    1.83</time>
   <time name="orth">    0.11    0.06</time>
   <time name="total">    5.56    2.96</time>
   <energy>
    <i name="e_fr_energy">    -14.98716885 </i>
    <i name="e_wo_entrp">    -14.98956073 </i>
    <i name="e_0_energy">    -14.98796614 </i>
   </energy>
  </scstep>
  <scstep>
   <time name="diag">    2.08    1.04</time>
   <time name="diis">    2.71    1.72</time>
   <time name="orth">    0.20    0.10</time>
   <time name="total">    5.03    2.88</time>
   <energy>
    <i name="alphaZ">     -0.81565505 </i>
    <i name="ewald">   -294.23109286 </i>
    <i name="hartreedc">     -0.41929867 </i>
    <i name="XCdc">   -104.50882624 </i>
    <i name="pawpsdc">    564.83486589 </i>
    <i name="pawaedc">   -437.06756829 </i>
    <i name="eentropy">      0.00239187 </i>
    <i name="bandstr">     43.06539732 </i>
    <i name="atom">    214.15261729 </i>
    <i name="e_fr_energy">    -14.98716875 </i>
    <i name="e_wo_entrp">    -14.98956062 </i>
    <i name="e_0_energy">    -14.98796604 </i>
   </energy>
  </scstep>
  <structure>
   <crystal>
    <varray name="basis" >
     <v>       4.03892969       0.00000000       0.00000000 </v>
     <v>      -0.00000000       4.03892969       0.00000000 </v>
     <v>       0.00000000       0.00000000       4.03892969 </v>
    </varray>
    <i name="volume">     65.88687052 </i>
    <varray name="rec_basis" >
     <v>       0.24759035       0.00000000      -0.00000000 </v>
     <v>       0.00000000       0.24759035       0.00000000 </v>
     <v>      -0.00000000      -0.00000000       0.24759035 </v>
    </varray>
   </crystal>
   <varray name="positions" >
    <v>       0.00000000       0.00000000       0.00000000 </v>
    <v>       0.00000000       0.50000000       0.50000000 </v>
    <v>       0.50000000       0.00000000       0.50000000 </v>
    <v>       0.50000000       0.50000000       0.00000000 </v>
   </varray>
  </structure>
  <varray name="forces" >
   <v>       0.00000000      -0.00000000      -0.00000000 </v>
   <v>      -0.00000000       0.00000000       0.00000000 </v>
   <v>       0.00000000      -0.00000000      -0.00000000 </v>
   <v>       0.00000000       0.00000000       0.00000000 </v>
  </varray>
  <varray name="stress" >
   <v>      -0.01084793       0.00000000       0.00000000 </v>
   <v>      -0.00000000      -0.01084793      -0.00000000 </v>
   <v>       0.00000000       0.00000000      -0.01084793 </v>
  </varray>
  <energy>
   <i name="e_fr_energy">    -14.98716875 </i>
   <i name="e_wo_entrp">    -14.98956062 </i>
   <i name="e_0_energy">    -14.98796604 </i>
  </energy>
  <time name="totalsc">  122.79   62.84</time>
  <eigenvalues>
   <array>
    <dimension dim="1">band</dimension>
    <dimension dim="2">kpoint</dimension>
    <dimension dim="3">spin</dimension>
    <field>eigene</field>
    <field>occ</field>
    <set>
     <set comment="spin 1">
      <set comment="kpoint 1">
       <r>   -3.1112    1.0000 </r>
       <r>    4.9772    1.0000 </r>
       <r>    4.9772    1.0000 </r>
       <r>    4.9772    1.0000 </r>
       <r>    6.5617    1.0000 </r>
       <r>    6.5617    1.0000 </r>
       <r>    6.5617    1.0000 </r>
       <r>   12.8165   -0.0000 </r>
       <r>   12.8166   -0.0000 </r>
       <r>   12.8166   -0.0000 </r>
       <r>   13.6353    0.0000 </r>
       <r>   13.6353    0.0000 </r>
       <r>   13.6353    0.0000 </r>
       <r>   14.0128    0.0000 </r>
      </set>
      <set comment="kpoint 2">
       <r>   -3.0658    1.0000 </r>
       <r>    4.3518    1.0000 </r>
       <r>    5.0190    1.0000 </r>
       <r>    5.0190    1.0000 </r>
       <r>    6.6052    1.0000 </r>
       <r>    6.6052    1.0000 </r>
       <r>    7.2655    1.0000 </r>
       <r>   12.1034   -0.0000 </r>
       <r>   12.1034   -0.0000 </r>
       <r>   12.8589   -0.0000 </r>
       <r>   13.3768   -0.0000 </r>
       <r>   13.3768   -0.0000 </r>
       <r>   13.6738    0.0000 </r>
       <r>   14.0539    0.0000 </r>
      </set>
      <set comment="kpoint 3">
       <r>   -2.9751    1.0000 </r>
       <r>    3.6269    1.0000 </r>
       <r>    5.1025    1.0000 </r>
       <r>    5.1025    1.0000 </r>
       <r>    6.6920    1.0000 </r>
       <r>    6.6920    1.0000 </r>
       <r>    8.1474    0.0940 </r>
       <r>   11.3696   -0.0000 </r>
       <r>   11.3696   -0.0000 </r>
       <r>   12.8785   -0.0000 </r>
       <r>   12.8785   -0.0000 </r>
       <r>   12.9436   -0.0000 </r>
       <r>   13.7508    0.0000 </r>
       <r>   14.1362    0.0000 </r>
      </set>
      <set comment="kpoint 4">
       <r>   -2.8392    1.0000 </r>
       <r>    2.9099    1.0000 </r>
       <r>    5.2279    1.0000 </r>
       <r>    5.2279    1.0000 </r>
       <r>    6.8217    1.0000 </r>
       <r>    6.8217    1.0000 </r>
       <r>    9.0997   -0.0000 </r>
       <r>   10.6661   -0.0000 </r>
       <r>   10.6661   -0.0000 </r>
       <r>   12.3049   -0.0000 </r>
       <r>   12.3049   -0.0000 </r>
       <r>   13.0705   -0.0000 </r>
       <r>   13.8663    0.0000 </r>
       <r>   14.2596    0.0000 </r>
      </set>
      <set comment="kpoint 5">
       <r>   -2.6582    1.0000 </r>
       <r>    2.2218    1.0000 </r>
       <r>    5.3950    1.0000 </r>
       <r>    5.3950    1.0000 </r>
       <r>    6.9932    1.0000 </r>
       <r>    6.9932    1.0000 </r>
       <r>   10.0009   -0.0000 </r>
       <r>   10.0009   -0.0000 </r>
       <r>   10.1012   -0.0000 </r>
       <r>   11.7149   -0.0000 </r>
       <r>   11.7149   -0.0000 </r>
       <r>   13.2395   -0.0000 </r>
       <r>   14.0204    0.0000 </r>
       <r>   14.4243    0.0000 </r>
      </set>
      <set comment="kpoint 6">
       <r>   -2.4322    1.0000 </r>
       <r>    1.5696    1.0000 </r>
       <r>    5.6039    1.0000 </r>
       <r>    5.6039    1.0000 </r>
       <r>    7.2049    1.0000 </r>
       <r>    7.2049    1.0000 </r>
       <r>    9.3765   -0.0000 </r>
       <r>    9.3765   -0.0000 </r>
       <r>   11.1359   -0.0000 </r>
       <r>   11.1359   -0.0000 </r>
       <r>   11.1447   -0.0000 </r>
       <r>   13.4503   -0.0000 </r>
       <r>   14.2130    0.0000 </r>
       <r>   14.6304    0.0000 </r>
      </set>
      <set comment="kpoint 7">
       <r>   -2.1615    1.0000 </r>
       <r>    0.9561    1.0000 </r>
       <r>    5.8545    1.0000 </r>
       <r>    5.8545    1.0000 </r>
       <r>    7.4530    1.0002 </r>
       <r>    7.4530    1.0002 </r>
       <r>    8.7950   -0.0000 </r>
       <r>    8.7950   -0.0000 </r>
       <r>   10.5834   -0.0000 </r>
       <r>   10.5834   -0.0000 </r>
       <r>   12.2267   -0.0000 </r>
       <r>   13.7029    0.0000 </r>
       <r>   14.4442    0.0000 </r>
       <r>   14.8782    0.0000 </r>
      </set>
      <set comment="kpoint 8">
       <r>   -1.8464    1.0000 </r>
       <r>    0.3831    1.0000 </r>
       <r>    6.1466    1.0000 </r>
       <r>    6.1466    1.0000 </r>
       <r>    7.7230    1.0253 </r>
       <r>    7.7230    1.0253 </r>
       <r>    8.2655   -0.0348 </r>
       <r>    8.2655   -0.0348 </r>
       <r>   10.0700   -0.0000 </r>
       <r>   10.0700   -0.0000 </r>
       <r>   13.3438   -0.0000 </r>
       <r>   13.9981    0.0000 </r>
       <r>   14.7142    0.0000 </r>
       <r>   15.1677    0.0000 </r>
      </set>
      <set comment="kpoint 9">
       <r>   -1.4871    1.0000 </r>
       <r>   -0.1484    1.0000 </r>
       <r>    6.4800    1.0000 </r>
       <r>    6.4800    1.0000 </r>
       <r>    7.7067    1.0215 </r>
       <r>    7.7067    1.0215 </r>
       <r>    8.0800    0.3088 </r>
       <r>    8.0800    0.3088 </r>
       <r>    9.6162   -0.0000 </r>
       <r>    9.6162   -0.0000 </r>
       <r>   14.3158    0.0000 </r>
       <r>   14.5133    0.0000 </r>
       <r>   15.0230    0.0000 </r>
       <r>   15.5177    0.0000 </r>
      </set>
      <set comment="kpoint 10">
       <r>   -1.0841    1.0000 </r>
       <r>   -0.6377    1.0000 </r>
       <r>    6.8532    1.0000 </r>
       <r>    6.8532    1.0000 </r>
       <r>    7.2718    1.0000 </r>
       <r>    7.2718    1.0000 </r>
       <r>    8.3069   -0.0329 </r>
       <r>    8.3069   -0.0329 </r>
       <r>    9.2893   -0.0000 </r>
       <r>    9.2893   -0.0000 </r>
       <r>   14.6999    0.0000 </r>
       <r>   15.1142    0.0000 </r>
       <r>   15.3715    0.0000 </r>
       <r>   15.6809    0.0000 </r>
      </set>
      <set comment="kpoint 11">
       <r>   -3.0205    1.0000 </r>
       <r>    4.3944    1.0000 </r>
       <r>    4.3944    1.0000 </r>
       <r>    5.0607    1.0000 </r>
       <r>    6.6485    1.0000 </r>
       <r>    7.3082    1.0000 </r>
       <r>    7.3082    1.0000 </r>
       <r>   11.4855   -0.0000 </r>
       <r>   12.1455   -0.0000 </r>
       <r>   12.1455   -0.0000 </r>
       <r>   13.4161   -0.0000 </r>
       <r>   13.4161   -0.0000 </r>
       <r>   13.7129    0.0000 </r>
       <r>   14.7582    0.0000 </r>
      </set>
      <set comment="kpoint 12">
       <r>   -2.9298    1.0000 </r>
       <r>    3.6700    1.0000 </r>
       <r>    4.4794    1.0000 </r>
       <r>    5.1443    1.0000 </r>
       <r>    6.7349    1.0000 </r>
       <r>    7.3931    1.0000 </r>
       <r>    8.1892    0.0156 </r>
       <r>   10.7860   -0.0000 </r>
       <r>   11.4116   -0.0000 </r>
       <r>   12.2295   -0.0000 </r>
       <r>   12.9189   -0.0000 </r>
       <r>   13.4495   -0.0000 </r>
       <r>   13.4947    0.0000 </r>
       <r>   14.8692    0.0000 </r>
      </set>
      <set comment="kpoint 13">
       <r>   -2.7939    1.0000 </r>
       <r>    2.9533    1.0000 </r>
       <r>    4.6070    1.0000 </r>
       <r>    5.2697    1.0000 </r>
       <r>    6.8637    1.0000 </r>
       <r>    7.5200    1.0009 </r>
       <r>    9.1406   -0.0000 </r>
       <r>   10.0988   -0.0000 </r>
       <r>   10.7082   -0.0000 </r>
       <r>   12.3463   -0.0000 </r>
       <r>   12.3556   -0.0000 </r>
       <r>   12.9175   -0.0000 </r>
       <r>   13.6127    0.0000 </r>
       <r>   14.9933    0.0000 </r>
      </set>
      <set comment="kpoint 14">
       <r>   -2.6129    1.0000 </r>
       <r>    2.2655    1.0000 </r>
       <r>    4.7769    1.0000 </r>
       <r>    5.4368    1.0000 </r>
       <r>    7.0332    1.0000 </r>
       <r>    7.6876    1.0173 </r>
       <r>    9.4435   -0.0000 </r>
       <r>   10.0433   -0.0000 </r>
       <r>   10.1408   -0.0000 </r>
       <r>   11.7578   -0.0000 </r>
       <r>   12.3376   -0.0000 </r>
       <r>   12.5236   -0.0000 </r>
       <r>   13.7700    0.0000 </r>
       <r>   15.1587    0.0000 </r>
      </set>
      <set comment="kpoint 15">
       <r>   -2.3871    1.0000 </r>
       <r>    1.6134    1.0000 </r>
       <r>    4.9890    1.0000 </r>
       <r>    5.6456    1.0000 </r>
       <r>    7.2394    1.0000 </r>
       <r>    7.8934    0.9599 </r>
       <r>    8.8293   -0.0000 </r>
       <r>    9.4196   -0.0000 </r>
       <r>   11.1810   -0.0000 </r>
       <r>   11.1820   -0.0000 </r>
       <r>   11.7614   -0.0000 </r>
       <r>   12.7340   -0.0000 </r>
       <r>   13.9668    0.0000 </r>
       <r>   15.3656    0.0000 </r>
      </set>
      <set comment="kpoint 16">
       <r>   -2.1165    1.0000 </r>
       <r>    1.0002    1.0000 </r>
       <r>    5.2431    1.0000 </r>
       <r>    5.8960    1.0000 </r>
       <r>    7.4647    1.0002 </r>
       <r>    8.1298    0.1400 </r>
       <r>    8.2750   -0.0354 </r>
       <r>    8.8423   -0.0000 </r>
       <r>   10.6327   -0.0000 </r>
       <r>   11.2083   -0.0000 </r>
       <r>   12.2584   -0.0000 </r>
       <r>   12.9883   -0.0000 </r>
       <r>   14.2037    0.0000 </r>
       <r>   15.6141    0.0000 </r>
      </set>
      <set comment="kpoint 17">
       <r>   -1.8014    1.0000 </r>
       <r>    0.4274    1.0000 </r>
       <r>    5.5389    1.0000 </r>
       <r>    6.1877    1.0000 </r>
       <r>    7.5179    1.0008 </r>
       <r>    7.9706    0.7518 </r>
       <r>    8.2323   -0.0245 </r>
       <r>    8.4660   -0.0046 </r>
       <r>   10.1300   -0.0000 </r>
       <r>   10.6889   -0.0000 </r>
       <r>   13.2381   -0.0000 </r>
       <r>   13.4136   -0.0000 </r>
       <r>   14.4831    0.0000 </r>
       <r>   15.3401    0.0000 </r>
      </set>
      <set comment="kpoint 18">
       <r>   -1.4423    1.0000 </r>
       <r>   -0.1040    1.0000 </r>
       <r>    5.8757    1.0000 </r>
       <r>    6.5187    1.0000 </r>
       <r>    7.1216    1.0000 </r>
       <r>    7.7735    1.0347 </r>
       <r>    8.1894    0.0153 </r>
       <r>    8.6792   -0.0000 </r>
       <r>    9.7165   -0.0000 </r>
       <r>   10.2142   -0.0000 </r>
       <r>   13.6011    0.0000 </r>
       <r>   14.4989    0.0000 </r>
       <r>   14.8337    0.0000 </r>
       <r>   14.8467    0.0000 </r>
      </set>
      <set comment="kpoint 19">
       <r>   -1.0393    1.0000 </r>
       <r>   -0.5931    1.0000 </r>
       <r>    6.2521    1.0000 </r>
       <r>    6.6576    1.0000 </r>
       <r>    6.9130    1.0000 </r>
       <r>    7.3193    1.0000 </r>
       <r>    8.5049   -0.0021 </r>
       <r>    8.7457   -0.0000 </r>
       <r>    9.5662   -0.0000 </r>
       <r>    9.8074   -0.0000 </r>
       <r>   13.9774    0.0000 </r>
       <r>   14.3925    0.0000 </r>
       <r>   15.1087    0.0000 </r>
       <r>   15.5116    0.0000 </r>
      </set>
      <set comment="kpoint 20">
       <r>   -2.8392    1.0000 </r>
       <r>    3.7560    1.0000 </r>
       <r>    3.7560    1.0000 </r>
       <r>    5.2279    1.0000 </r>
       <r>    6.8202    1.0000 </r>
       <r>    8.2725   -0.0353 </r>
       <r>    8.2725   -0.0353 </r>
       <r>   10.0999   -0.0000 </r>
       <r>   11.4957   -0.0000 </r>
       <r>   11.4957   -0.0000 </r>
       <r>   12.9996   -0.0000 </r>
       <r>   12.9996   -0.0000 </r>
       <r>   13.8681    0.0000 </r>
       <r>   15.2162    0.0000 </r>
      </set>
      <set comment="kpoint 21">
       <r>   -2.7034    1.0000 </r>
       <r>    3.0399    1.0000 </r>
       <r>    3.8849    1.0000 </r>
       <r>    5.3532    1.0000 </r>
       <r>    6.9465    1.0000 </r>
       <r>    8.3964   -0.0139 </r>
       <r>    9.2218   -0.0000 </r>
       <r>    9.4200   -0.0000 </r>
       <r>   10.7926   -0.0000 </r>
       <r>   11.6219   -0.0000 </r>
       <r>   12.4295   -0.0000 </r>
       <r>   13.1208   -0.0000 </r>
       <r>   13.6389    0.0000 </r>
       <r>   15.7617    0.0000 </r>
      </set>
      <set comment="kpoint 22">
       <r>   -2.5226    1.0000 </r>
       <r>    2.3527    1.0000 </r>
       <r>    4.0566    1.0000 </r>
       <r>    5.5202    1.0000 </r>
       <r>    7.1096    1.0000 </r>
       <r>    8.5591   -0.0006 </r>
       <r>    8.7730   -0.0000 </r>
       <r>   10.1285   -0.0000 </r>
       <r>   10.2187   -0.0000 </r>
       <r>   11.7906   -0.0000 </r>
       <r>   11.8441   -0.0000 </r>
       <r>   13.1287   -0.0000 </r>
       <r>   13.2829   -0.0000 </r>
       <r>   16.0533    0.0000 </r>
      </set>
      <set comment="kpoint 23">
       <r>   -2.2968    1.0000 </r>
       <r>    1.7011    1.0000 </r>
       <r>    4.2710    1.0000 </r>
       <r>    5.7288    1.0000 </r>
       <r>    7.2913    1.0000 </r>
       <r>    8.1841    0.0229 </r>
       <r>    8.7541   -0.0000 </r>
       <r>    9.5087   -0.0000 </r>
       <r>   11.2524   -0.0000 </r>
       <r>   11.2727   -0.0000 </r>
       <r>   12.0040   -0.0000 </r>
       <r>   12.5753   -0.0000 </r>
       <r>   13.4868   -0.0000 </r>
       <r>   15.7194    0.0000 </r>
      </set>
      <set comment="kpoint 24">
       <r>   -2.0264    1.0000 </r>
       <r>    1.0883    1.0000 </r>
       <r>    4.5277    1.0000 </r>
       <r>    5.9787    1.0000 </r>
       <r>    7.3235    1.0000 </r>
       <r>    7.8240    1.0294 </r>
       <r>    8.8519   -0.0000 </r>
       <r>    9.0554   -0.0000 </r>
       <r>   10.7367   -0.0000 </r>
       <r>   12.0315   -0.0000 </r>
       <r>   12.1995   -0.0000 </r>
       <r>   12.3784   -0.0000 </r>
       <r>   13.7361    0.0000 </r>
       <r>   15.1464    0.0000 </r>
      </set>
      <set comment="kpoint 25">
       <r>   -1.7116    1.0000 </r>
       <r>    0.5158    1.0000 </r>
       <r>    4.8265    1.0000 </r>
       <r>    6.2679    1.0000 </r>
       <r>    6.9180    1.0000 </r>
       <r>    7.9833    0.7050 </r>
       <r>    8.3591   -0.0218 </r>
       <r>    9.2302   -0.0000 </r>
       <r>   10.2756   -0.0000 </r>
       <r>   11.5147   -0.0000 </r>
       <r>   12.5316   -0.0000 </r>
       <r>   13.4158   -0.0000 </r>
       <r>   14.0544    0.0000 </r>
       <r>   14.6116    0.0000 </r>
      </set>
      <set comment="kpoint 26">
       <r>   -1.3526    1.0000 </r>
       <r>   -0.0152    1.0000 </r>
       <r>    5.1669    1.0000 </r>
       <r>    6.4091    1.0000 </r>
       <r>    6.6288    1.0000 </r>
       <r>    7.8621    1.0032 </r>
       <r>    8.2931   -0.0347 </r>
       <r>    9.2886   -0.0000 </r>
       <r>   10.0516   -0.0000 </r>
       <r>   11.0344   -0.0000 </r>
       <r>   12.8682   -0.0000 </r>
       <r>   14.1159    0.0000 </r>
       <r>   14.2073    0.0000 </r>
       <r>   14.7288    0.0000 </r>
      </set>
      <set comment="kpoint 27">
       <r>   -0.9500    1.0000 </r>
       <r>   -0.5040    1.0000 </r>
       <r>    5.5480    1.0000 </r>
       <r>    5.9676    1.0000 </r>
       <r>    6.9885    1.0000 </r>
       <r>    7.4042    1.0000 </r>
       <r>    8.6495   -0.0001 </r>
       <r>    9.0184   -0.0000 </r>
       <r>   10.2365   -0.0000 </r>
       <r>   10.6004   -0.0000 </r>
       <r>   13.2439   -0.0000 </r>
       <r>   13.6598    0.0000 </r>
       <r>   14.6218    0.0000 </r>
       <r>   15.0277    0.0000 </r>
      </set>
      <set comment="kpoint 28">
       <r>   -2.5677    1.0000 </r>
       <r>    3.1699    1.0000 </r>
       <r>    3.1699    1.0000 </r>
       <r>    5.4784    1.0000 </r>
       <r>    7.0661    1.0000 </r>
       <r>    8.7477   -0.0000 </r>
       <r>    9.3417   -0.0000 </r>
       <r>    9.3417   -0.0000 </r>
       <r>   10.9196   -0.0000 </r>
       <r>   10.9196   -0.0000 </r>
       <r>   12.5547   -0.0000 </r>
       <r>   12.5547   -0.0000 </r>
       <r>   14.1011    0.0000 </r>
       <r>   15.6020    0.0000 </r>
      </set>
      <set comment="kpoint 29">
       <r>   -2.3871    1.0000 </r>
       <r>    2.4834    1.0000 </r>
       <r>    3.3429    1.0000 </r>
       <r>    5.6452    1.0000 </r>
       <r>    7.2043    1.0000 </r>
       <r>    8.1250    0.1538 </r>
       <r>    9.4945   -0.0000 </r>
       <r>   10.2591   -0.0000 </r>
       <r>   10.3298   -0.0000 </r>
       <r>   11.0918   -0.0000 </r>
       <r>   11.9755   -0.0000 </r>
       <r>   12.7235   -0.0000 </r>
       <r>   13.9140    0.0000 </r>
       <r>   15.6404    0.0000 </r>
      </set>
      <set comment="kpoint 30">
       <r>   -2.1615    1.0000 </r>
       <r>    1.8326    1.0000 </r>
       <r>    3.5589    1.0000 </r>
       <r>    5.8533    1.0000 </r>
       <r>    7.2016    1.0000 </r>
       <r>    7.7199    1.0246 </r>
       <r>    9.5612   -0.0000 </r>
       <r>    9.7543   -0.0000 </r>
       <r>   11.2372   -0.0000 </r>
       <r>   11.4168   -0.0000 </r>
       <r>   11.4206   -0.0000 </r>
       <r>   12.9402   -0.0000 </r>
       <r>   13.4410   -0.0000 </r>
       <r>   15.0264    0.0000 </r>
      </set>
      <set comment="kpoint 31">
       <r>   -1.8914    1.0000 </r>
       <r>    1.2203    1.0000 </r>
       <r>    3.8177    1.0000 </r>
       <r>    6.1007    1.0000 </r>
       <r>    6.7677    1.0000 </r>
       <r>    7.8274    1.0280 </r>
       <r>    9.0283   -0.0000 </r>
       <r>    9.8898   -0.0000 </r>
       <r>   10.9214   -0.0000 </r>
       <r>   11.5343   -0.0000 </r>
       <r>   12.4085   -0.0000 </r>
       <r>   12.9246   -0.0000 </r>
       <r>   13.2281   -0.0000 </r>
       <r>   14.4501    0.0000 </r>
      </set>
      <set comment="kpoint 32">
       <r>   -1.5768    1.0000 </r>
       <r>    0.6484    1.0000 </r>
       <r>    4.1188    1.0000 </r>
       <r>    6.2155    1.0000 </r>
       <r>    6.4235    1.0000 </r>
       <r>    8.0995    0.2368 </r>
       <r>    8.4893   -0.0029 </r>
       <r>    9.9201   -0.0000 </r>
       <r>   10.6488   -0.0000 </r>
       <r>   11.8304   -0.0000 </r>
       <r>   12.4195   -0.0000 </r>
       <r>   13.2424   -0.0000 </r>
       <r>   13.7883    0.0000 </r>
       <r>   13.9128    0.0000 </r>
      </set>
      <set comment="kpoint 33">
       <r>   -1.2183    1.0000 </r>
       <r>    0.1179    1.0000 </r>
       <r>    4.4620    1.0000 </r>
       <r>    5.7345    1.0000 </r>
       <r>    6.7387    1.0000 </r>
       <r>    7.9891    0.6824 </r>
       <r>    8.4291   -0.0086 </r>
       <r>    9.6143   -0.0000 </r>
       <r>   10.7892   -0.0000 </r>
       <r>   11.9429   -0.0000 </r>
       <r>   12.1655   -0.0000 </r>
       <r>   13.4151   -0.0000 </r>
       <r>   13.6794    0.0000 </r>
       <r>   14.8211    0.0000 </r>
      </set>
      <set comment="kpoint 34">
       <r>   -0.8160    1.0000 </r>
       <r>   -0.3704    1.0000 </r>
       <r>    4.8466    1.0000 </r>
       <r>    5.2716    1.0000 </r>
       <r>    7.1130    1.0000 </r>
       <r>    7.5301    1.0011 </r>
       <r>    8.8005   -0.0000 </r>
       <r>    9.2034   -0.0000 </r>
       <r>   11.1115   -0.0000 </r>
       <r>   11.5038   -0.0000 </r>
       <r>   12.5413   -0.0000 </r>
       <r>   12.9578   -0.0000 </r>
       <r>   14.0635    0.0000 </r>
       <r>   14.4701    0.0000 </r>
      </set>
      <set comment="kpoint 35">
       <r>   -2.2066    1.0000 </r>
       <r>    2.6576    1.0000 </r>
       <r>    2.6576    1.0000 </r>
       <r>    5.8115    1.0000 </r>
       <r>    7.1605    1.0000 </r>
       <r>    7.6834    1.0164 </r>
       <r>   10.3571   -0.0000 </r>
       <r>   10.3571   -0.0000 </r>
       <r>   10.5447   -0.0000 </r>
       <r>   10.5447   -0.0000 </r>
       <r>   12.1571   -0.0000 </r>
       <r>   12.1571   -0.0000 </r>
       <r>   14.4120    0.0000 </r>
       <r>   14.9860    0.0000 </r>
      </set>
      <set comment="kpoint 36">
       <r>   -1.9814    1.0000 </r>
       <r>    2.0076    1.0000 </r>
       <r>    2.8749    1.0000 </r>
       <r>    6.0170    1.0000 </r>
       <r>    6.6901    1.0000 </r>
       <r>    7.7466    1.0305 </r>
       <r>    9.7810   -0.0000 </r>
       <r>   10.6167   -0.0000 </r>
       <r>   10.6427   -0.0000 </r>
       <r>   11.4832   -0.0000 </r>
       <r>   11.6381   -0.0000 </r>
       <r>   12.4127   -0.0000 </r>
       <r>   14.2703    0.0000 </r>
       <r>   14.3685    0.0000 </r>
      </set>
      <set comment="kpoint 37">
       <r>   -1.7116    1.0000 </r>
       <r>    1.3962    1.0000 </r>
       <r>    3.1353    1.0000 </r>
       <r>    6.0960    1.0000 </r>
       <r>    6.2997    1.0000 </r>
       <r>    7.9773    0.7275 </r>
       <r>    9.2002   -0.0000 </r>
       <r>   10.6361   -0.0000 </r>
       <r>   10.8716   -0.0000 </r>
       <r>   11.3318   -0.0000 </r>
       <r>   12.3061   -0.0000 </r>
       <r>   12.9091   -0.0000 </r>
       <r>   13.7898    0.0000 </r>
       <r>   13.8406    0.0000 </r>
      </set>
      <set comment="kpoint 38">
       <r>   -1.3974    1.0000 </r>
       <r>    0.8251    1.0000 </r>
       <r>    3.4384    1.0000 </r>
       <r>    5.5742    1.0000 </r>
       <r>    6.5719    1.0000 </r>
       <r>    8.2682   -0.0350 </r>
       <r>    8.6582   -0.0000 </r>
       <r>   10.2899   -0.0000 </r>
       <r>   11.1655   -0.0000 </r>
       <r>   11.4367   -0.0000 </r>
       <r>   12.7496   -0.0000 </r>
       <r>   13.2505   -0.0000 </r>
       <r>   13.3656   -0.0000 </r>
       <r>   13.8627    0.0000 </r>
      </set>
      <set comment="kpoint 39">
       <r>   -1.0393    1.0000 </r>
       <r>    0.2952    1.0000 </r>
       <r>    3.7839    1.0000 </r>
       <r>    5.0684    1.0000 </r>
       <r>    6.9044    1.0000 </r>
       <r>    8.1572    0.0717 </r>
       <r>    8.6050   -0.0002 </r>
       <r>    9.8399   -0.0000 </r>
       <r>   11.5003   -0.0000 </r>
       <r>   11.7192   -0.0000 </r>
       <r>   12.7516   -0.0000 </r>
       <r>   12.9019   -0.0000 </r>
       <r>   13.1101   -0.0000 </r>
       <r>   14.3357    0.0000 </r>
      </set>
      <set comment="kpoint 40">
       <r>   -0.6375    1.0000 </r>
       <r>   -0.1925    1.0000 </r>
       <r>    4.1713    1.0000 </r>
       <r>    4.5998    1.0000 </r>
       <r>    7.2800    1.0000 </r>
       <r>    7.6977    1.0195 </r>
       <r>    8.9826   -0.0000 </r>
       <r>    9.3967   -0.0000 </r>
       <r>   11.8763   -0.0000 </r>
       <r>   12.0700   -0.0000 </r>
       <r>   12.2935   -0.0000 </r>
       <r>   12.4671   -0.0000 </r>
       <r>   13.4870   -0.0000 </r>
       <r>   13.8946    0.0000 </r>
      </set>
      <set comment="kpoint 41">
       <r>   -1.7565    1.0000 </r>
       <r>    2.2262    1.0000 </r>
       <r>    2.2262    1.0000 </r>
       <r>    6.0558    1.0000 </r>
       <r>    6.2583    1.0000 </r>
       <r>    7.9359    0.8632 </r>
       <r>    9.9945   -0.0000 </r>
       <r>    9.9945   -0.0000 </r>
       <r>   11.4332   -0.0000 </r>
       <r>   11.4332   -0.0000 </r>
       <r>   12.0881   -0.0000 </r>
       <r>   12.0881   -0.0000 </r>
       <r>   13.7486    0.0000 </r>
       <r>   14.8011    0.0000 </r>
      </set>
      <set comment="kpoint 42">
       <r>   -1.4871    1.0000 </r>
       <r>    1.6158    1.0000 </r>
       <r>    2.4879    1.0000 </r>
       <r>    5.4930    1.0000 </r>
       <r>    6.4885    1.0000 </r>
       <r>    8.1857    0.0205 </r>
       <r>    9.4109   -0.0000 </r>
       <r>   10.2469   -0.0000 </r>
       <r>   11.0419   -0.0000 </r>
       <r>   11.8649   -0.0000 </r>
       <r>   12.1683   -0.0000 </r>
       <r>   12.9781   -0.0000 </r>
       <r>   13.1679   -0.0000 </r>
       <r>   14.7415    0.0000 </r>
      </set>
      <set comment="kpoint 43">
       <r>   -1.1735    1.0000 </r>
       <r>    1.0455    1.0000 </r>
       <r>    2.7927    1.0000 </r>
       <r>    4.9448    1.0000 </r>
       <r>    6.7792    1.0000 </r>
       <r>    8.4825   -0.0033 </r>
       <r>    8.8681   -0.0000 </r>
       <r>   10.5403   -0.0000 </r>
       <r>   10.5544   -0.0000 </r>
       <r>   12.1975   -0.0000 </r>
       <r>   12.4134   -0.0000 </r>
       <r>   12.6274   -0.0000 </r>
       <r>   14.0427    0.0000 </r>
       <r>   14.2479    0.0000 </r>
      </set>
      <set comment="kpoint 44">
       <r>   -0.8159    1.0000 </r>
       <r>    0.5165    1.0000 </r>
       <r>    3.1401    1.0000 </r>
       <r>    4.4332    1.0000 </r>
       <r>    7.1130    1.0000 </r>
       <r>    8.3667   -0.0200 </r>
       <r>    8.8223   -0.0000 </r>
       <r>   10.0739   -0.0000 </r>
       <r>   10.8751   -0.0000 </r>
       <r>   12.1276   -0.0000 </r>
       <r>   12.5424   -0.0000 </r>
       <r>   12.7233   -0.0000 </r>
       <r>   13.7703    0.0000 </r>
       <r>   13.8915    0.0000 </r>
      </set>
      <set comment="kpoint 45">
       <r>   -0.4148    1.0000 </r>
       <r>    0.0296    1.0000 </r>
       <r>    3.5298    1.0000 </r>
       <r>    3.9610    1.0000 </r>
       <r>    7.4890    1.0004 </r>
       <r>    7.9070    0.9339 </r>
       <r>    9.2026   -0.0000 </r>
       <r>    9.6210   -0.0000 </r>
       <r>   11.2512   -0.0000 </r>
       <r>   11.6688   -0.0000 </r>
       <r>   12.9175   -0.0000 </r>
       <r>   13.0784   -0.0000 </r>
       <r>   13.3266   -0.0000 </r>
       <r>   13.4707   -0.0000 </r>
      </set>
      <set comment="kpoint 46">
       <r>   -1.2182    1.0000 </r>
       <r>    1.8788    1.0000 </r>
       <r>    1.8788    1.0000 </r>
       <r>    4.9035    1.0000 </r>
       <r>    6.7374    1.0000 </r>
       <r>    8.4412   -0.0070 </r>
       <r>    9.6627   -0.0000 </r>
       <r>    9.6627   -0.0000 </r>
       <r>   11.3424   -0.0000 </r>
       <r>   11.3424   -0.0000 </r>
       <r>   12.5859   -0.0000 </r>
       <r>   13.1890   -0.0000 </r>
       <r>   13.1890   -0.0000 </r>
       <r>   14.2173    0.0000 </r>
      </set>
      <set comment="kpoint 47">
       <r>   -0.9052    1.0000 </r>
       <r>    1.3097    1.0000 </r>
       <r>    2.1850    1.0000 </r>
       <r>    4.3494    1.0000 </r>
       <r>    7.0295    1.0000 </r>
       <r>    8.7403   -0.0000 </r>
       <r>    9.1196   -0.0000 </r>
       <r>    9.9558   -0.0000 </r>
       <r>   10.8275   -0.0000 </r>
       <r>   11.6526   -0.0000 </r>
       <r>   12.0445   -0.0000 </r>
       <r>   13.4590   -0.0000 </r>
       <r>   13.7056    0.0000 </r>
       <r>   14.2742    0.0000 </r>
      </set>
      <set comment="kpoint 48">
       <r>   -0.5483    1.0000 </r>
       <r>    0.7816    1.0000 </r>
       <r>    2.5341    1.0000 </r>
       <r>    3.8341    1.0000 </r>
       <r>    7.3638    1.0000 </r>
       <r>    8.6180   -0.0001 </r>
       <r>    9.0813   -0.0000 </r>
       <r>   10.2906   -0.0000 </r>
       <r>   10.3386   -0.0000 </r>
       <r>   11.5440   -0.0000 </r>
       <r>   11.9930   -0.0000 </r>
       <r>   13.2254   -0.0000 </r>
       <r>   13.7724    0.0000 </r>
       <r>   14.8863    0.0000 </r>
      </set>
      <set comment="kpoint 49">
       <r>   -0.1479    1.0000 </r>
       <r>    0.2956    1.0000 </r>
       <r>    2.9257    1.0000 </r>
       <r>    3.3593    1.0000 </r>
       <r>    7.7400    1.0291 </r>
       <r>    8.1581    0.0697 </r>
       <r>    9.4626   -0.0000 </r>
       <r>    9.8824   -0.0000 </r>
       <r>   10.6669   -0.0000 </r>
       <r>   11.0848   -0.0000 </r>
       <r>   12.3681   -0.0000 </r>
       <r>   12.7791   -0.0000 </r>
       <r>   14.1220    0.0000 </r>
       <r>   14.4996    0.0000 </r>
      </set>
      <set comment="kpoint 50">
       <r>   -0.5928    1.0000 </r>
       <r>    1.6172    1.0000 </r>
       <r>    1.6172    1.0000 </r>
       <r>    3.7917    1.0000 </r>
       <r>    7.3220    1.0000 </r>
       <r>    9.0403   -0.0000 </r>
       <r>    9.4126   -0.0000 </r>
       <r>    9.4126   -0.0000 </r>
       <r>   11.1311   -0.0000 </r>
       <r>   11.1311   -0.0000 </r>
       <r>   11.5024   -0.0000 </r>
       <r>   13.1909   -0.0000 </r>
       <r>   14.5466    0.0000 </r>
       <r>   14.5466    0.0000 </r>
      </set>
      <set comment="kpoint 51">
       <r>   -0.2367    1.0000 </r>
       <r>    1.0903    1.0000 </r>
       <r>    1.9678    1.0000 </r>
       <r>    3.2737    1.0000 </r>
       <r>    7.6565    1.0114 </r>
       <r>    8.9110   -0.0000 </r>
       <r>    9.3815   -0.0000 </r>
       <r>    9.7474   -0.0000 </r>
       <r>   10.6398   -0.0000 </r>
       <r>   11.0014   -0.0000 </r>
       <r>   11.4701   -0.0000 </r>
       <r>   12.7079   -0.0000 </r>
       <r>   14.8538    0.0000 </r>
       <r>   15.6635    0.0000 </r>
      </set>
      <set comment="kpoint 52">
       <r>    0.1628    1.0000 </r>
       <r>    0.6053    1.0000 </r>
       <r>    2.3611    1.0000 </r>
       <r>    2.7966    1.0000 </r>
       <r>    8.0328    0.5025 </r>
       <r>    8.4510   -0.0060 </r>
       <r>    9.7628   -0.0000 </r>
       <r>   10.1238   -0.0000 </r>
       <r>   10.1829   -0.0000 </r>
       <r>   10.5418   -0.0000 </r>
       <r>   11.8462   -0.0000 </r>
       <r>   12.2591   -0.0000 </r>
       <r>   15.1875    0.0000 </r>
       <r>   15.5286    0.0000 </r>
      </set>
      <set comment="kpoint 53">
       <r>    0.1185    1.0000 </r>
       <r>    1.4423    1.0000 </r>
       <r>    1.4423    1.0000 </r>
       <r>    2.7535    1.0000 </r>
       <r>    7.9910    0.6749 </r>
       <r>    9.2457   -0.0000 </r>
       <r>    9.2457   -0.0000 </r>
       <r>    9.7225   -0.0000 </r>
       <r>   10.5001   -0.0000 </r>
       <r>   10.9789   -0.0000 </r>
       <r>   10.9789   -0.0000 </r>
       <r>   12.2222   -0.0000 </r>
       <r>   15.9535    0.0000 </r>
       <r>   15.9538    0.0000 </r>
      </set>
      <set comment="kpoint 54">
       <r>    0.5171    1.0000 </r>
       <r>    0.9585    1.0000 </r>
       <r>    1.8371    1.0000 </r>
       <r>    2.2743    1.0000 </r>
       <r>    8.3675   -0.0199 </r>
       <r>    8.7857   -0.0000 </r>
       <r>    9.6222   -0.0000 </r>
       <r>   10.0404   -0.0000 </r>
       <r>   10.1032   -0.0000 </r>
       <r>   10.5226   -0.0000 </r>
       <r>   11.3562   -0.0000 </r>
       <r>   11.7710   -0.0000 </r>
       <r>   16.2495    0.0000 </r>
       <r>   16.4860    0.0000 </r>
      </set>
      <set comment="kpoint 55">
       <r>    0.9145    1.0000 </r>
       <r>    1.3547    1.0000 </r>
       <r>    1.3547    1.0000 </r>
       <r>    1.7935    1.0000 </r>
       <r>    8.7439   -0.0000 </r>
       <r>    9.1622   -0.0000 </r>
       <r>    9.1622   -0.0000 </r>
       <r>    9.5804   -0.0000 </r>
       <r>   10.4830   -0.0000 </r>
       <r>   10.9011   -0.0000 </r>
       <r>   10.9011   -0.0000 </r>
       <r>   11.3177   -0.0000 </r>
       <r>   17.1433    0.0000 </r>
       <r>   17.2344    0.0000 </r>
      </set>
      <set comment="kpoint 56">
       <r>   -2.9751    1.0000 </r>
       <r>    4.4369    1.0000 </r>
       <r>    4.4369    1.0000 </r>
       <r>    4.4369    1.0000 </r>
       <r>    7.3505    1.0000 </r>
       <r>    7.3505    1.0000 </r>
       <r>    7.3505    1.0000 </r>
       <r>   11.5276   -0.0000 </r>
       <r>   11.5276   -0.0000 </r>
       <r>   11.5276   -0.0000 </r>
       <r>   13.7514    0.0000 </r>
       <r>   13.7514    0.0000 </r>
       <r>   13.7514    0.0000 </r>
       <r>   14.7970    0.0000 </r>
      </set>
      <set comment="kpoint 57">
       <r>   -2.8845    1.0000 </r>
       <r>    3.7130    1.0000 </r>
       <r>    4.5219    1.0000 </r>
       <r>    4.5219    1.0000 </r>
       <r>    7.4349    1.0001 </r>
       <r>    7.4349    1.0001 </r>
       <r>    8.2306   -0.0236 </r>
       <r>   10.8285   -0.0000 </r>
       <r>   10.8285   -0.0000 </r>
       <r>   11.6120   -0.0000 </r>
       <r>   13.4891   -0.0000 </r>
       <r>   13.4891   -0.0000 </r>
       <r>   13.8284    0.0000 </r>
       <r>   14.8825    0.0000 </r>
      </set>
      <set comment="kpoint 58">
       <r>   -2.7487    1.0000 </r>
       <r>    2.9966    1.0000 </r>
       <r>    4.6494    1.0000 </r>
       <r>    4.6494    1.0000 </r>
       <r>    7.5604    1.0021 </r>
       <r>    7.5604    1.0021 </r>
       <r>    9.1807   -0.0000 </r>
       <r>   10.1422   -0.0000 </r>
       <r>   10.1422   -0.0000 </r>
       <r>   11.7387   -0.0000 </r>
       <r>   12.9582   -0.0000 </r>
       <r>   12.9582   -0.0000 </r>
       <r>   13.9440    0.0000 </r>
       <r>   15.0104    0.0000 </r>
      </set>
      <set comment="kpoint 59">
       <r>   -2.5677    1.0000 </r>
       <r>    2.3091    1.0000 </r>
       <r>    4.8193    1.0000 </r>
       <r>    4.8193    1.0000 </r>
       <r>    7.7245    1.0256 </r>
       <r>    7.7245    1.0256 </r>
       <r>    9.4892   -0.0000 </r>
       <r>    9.4892   -0.0000 </r>
       <r>   10.1783   -0.0000 </r>
       <r>   11.9087   -0.0000 </r>
       <r>   12.3793   -0.0000 </r>
       <r>   12.3793   -0.0000 </r>
       <r>   14.0981    0.0000 </r>
       <r>   15.1808    0.0000 </r>
      </set>
      <set comment="kpoint 60">
       <r>   -2.3419    1.0000 </r>
       <r>    1.6573    1.0000 </r>
       <r>    5.0312    1.0000 </r>
       <r>    5.0312    1.0000 </r>
       <r>    7.9176    0.9104 </r>
       <r>    7.9176    0.9104 </r>
       <r>    8.8841   -0.0000 </r>
       <r>    8.8841   -0.0000 </r>
       <r>   11.2120   -0.0000 </r>
       <r>   11.8045   -0.0000 </r>
       <r>   11.8045   -0.0000 </r>
       <r>   12.1262   -0.0000 </r>
       <r>   14.2908    0.0000 </r>
       <r>   15.3936    0.0000 </r>
      </set>
      <set comment="kpoint 61">
       <r>   -2.0714    1.0000 </r>
       <r>    1.0443    1.0000 </r>
       <r>    5.2851    1.0000 </r>
       <r>    5.2851    1.0000 </r>
       <r>    8.0392    0.4757 </r>
       <r>    8.0392    0.4757 </r>
       <r>    8.4283   -0.0087 </r>
       <r>    8.4283   -0.0087 </r>
       <r>   11.2534   -0.0000 </r>
       <r>   11.2534   -0.0000 </r>
       <r>   12.2027   -0.0000 </r>
       <r>   12.4666   -0.0000 </r>
       <r>   14.5222    0.0000 </r>
       <r>   15.2383    0.0000 </r>
      </set>
      <set comment="kpoint 62">
       <r>   -1.7565    1.0000 </r>
       <r>    0.4716    1.0000 </r>
       <r>    5.5802    1.0000 </r>
       <r>    5.5802    1.0000 </r>
       <r>    7.6687    1.0135 </r>
       <r>    7.6687    1.0135 </r>
       <r>    8.5399   -0.0010 </r>
       <r>    8.5399   -0.0010 </r>
       <r>   10.7384   -0.0000 </r>
       <r>   10.7384   -0.0000 </r>
       <r>   12.6273   -0.0000 </r>
       <r>   13.4503   -0.0000 </r>
       <r>   14.7077    0.0000 </r>
       <r>   14.7922    0.0000 </r>
      </set>
      <set comment="kpoint 63">
       <r>   -1.3974    1.0000 </r>
       <r>   -0.0596    1.0000 </r>
       <r>    5.9150    1.0000 </r>
       <r>    5.9150    1.0000 </r>
       <r>    7.1885    1.0000 </r>
       <r>    7.1885    1.0000 </r>
       <r>    8.8261   -0.0000 </r>
       <r>    8.8261   -0.0000 </r>
       <r>   10.2765   -0.0000 </r>
       <r>   10.2765   -0.0000 </r>
       <r>   12.9699   -0.0000 </r>
       <r>   14.2151    0.0000 </r>
       <r>   14.5900    0.0000 </r>
       <r>   15.1008    0.0000 </r>
      </set>
      <set comment="kpoint 64">
       <r>   -0.9946    1.0000 </r>
       <r>   -0.5485    1.0000 </r>
       <r>    6.2782    1.0000 </r>
       <r>    6.2782    1.0000 </r>
       <r>    6.7475    1.0000 </r>
       <r>    6.7475    1.0000 </r>
       <r>    9.0917   -0.0000 </r>
       <r>    9.0917   -0.0000 </r>
       <r>    9.9275   -0.0000 </r>
       <r>    9.9275   -0.0000 </r>
       <r>   13.3462   -0.0000 </r>
       <r>   13.7610    0.0000 </r>
       <r>   15.4480    0.0000 </r>
       <r>   15.7676    0.0000 </r>
      </set>
      <set comment="kpoint 65">
       <r>   -2.7939    1.0000 </r>
       <r>    3.7990    1.0000 </r>
       <r>    3.7990    1.0000 </r>
       <r>    4.6069    1.0000 </r>
       <r>    7.5178    1.0008 </r>
       <r>    8.3128   -0.0319 </r>
       <r>    8.3128   -0.0319 </r>
[...]
       <r>    1.3553    1.0000 </r>
       <r>    2.6662    1.0000 </r>
       <r>    2.6662    1.0000 </r>
       <r>    3.5134    1.0000 </r>
       <r>    4.0045    1.0000 </r>
       <r>    4.8450    1.0000 </r>
       <r>    4.8450    1.0000 </r>
       <r>    6.1295    1.0000 </r>
       <r>   16.2396    0.0000 </r>
       <r>   16.9933    0.0000 </r>
       <r>   16.9933    0.0000 </r>
       <r>   17.2390    0.0000 </r>
       <r>   17.2390    0.0000 </r>
       <r>   17.5275    0.0000 </r>
      </set>
      <set comment="kpoint 215">
       <r>    1.7504    1.0000 </r>
       <r>    2.1877    1.0000 </r>
       <r>    3.0548    1.0000 </r>
       <r>    3.4712    1.0000 </r>
       <r>    3.9606    1.0000 </r>
       <r>    4.3747    1.0000 </r>
       <r>    5.2308    1.0000 </r>
       <r>    5.6593    1.0000 </r>
       <r>   16.5714    0.0000 </r>
       <r>   16.9007    0.0000 </r>
       <r>   17.3453    0.0000 </r>
       <r>   17.5559    0.0000 </r>
       <r>   17.5766    0.0000 </r>
       <r>   17.9552    0.0000 </r>
      </set>
      <set comment="kpoint 216">
       <r>    2.1441    1.0000 </r>
       <r>    2.5796    1.0000 </r>
       <r>    2.5796    1.0000 </r>
       <r>    3.0117    1.0000 </r>
       <r>    4.3316    1.0000 </r>
       <r>    4.7592    1.0000 </r>
       <r>    4.7592    1.0000 </r>
       <r>    5.1881    1.0000 </r>
       <r>   16.9101    0.0000 </r>
       <r>   17.2547    0.0000 </r>
       <r>   17.2547    0.0000 </r>
       <r>   17.6096    0.0000 </r>
       <r>   18.2435    0.0000 </r>
       <r>   18.3111    0.0000 </r>
      </set>
      <set comment="kpoint 217">
       <r>    1.7066    1.0000 </r>
       <r>    3.0115    1.0000 </r>
       <r>    3.0115    1.0000 </r>
       <r>    3.0115    1.0000 </r>
       <r>    4.3319    1.0000 </r>
       <r>    4.3319    1.0000 </r>
       <r>    4.3319    1.0000 </r>
       <r>    5.6169    1.0000 </r>
       <r>   17.3104    0.0000 </r>
       <r>   17.3104    0.0000 </r>
       <r>   17.3105    0.0000 </r>
       <r>   17.8399    0.0000 </r>
       <r>   17.8400    0.0000 </r>
       <r>   17.8412    0.0000 </r>
      </set>
      <set comment="kpoint 218">
       <r>    2.1005    1.0000 </r>
       <r>    2.5361    1.0000 </r>
       <r>    3.3857    1.0000 </r>
       <r>    3.3857    1.0000 </r>
       <r>    3.8737    1.0000 </r>
       <r>    3.8737    1.0000 </r>
       <r>    4.7166    1.0000 </r>
       <r>    5.1456    1.0000 </r>
       <r>   17.6057    0.0000 </r>
       <r>   17.6058    0.0000 </r>
       <r>   17.8859    0.0000 </r>
       <r>   17.8883    0.0000 </r>
       <r>   18.1934    0.0000 </r>
       <r>   18.3761    0.0000 </r>
      </set>
      <set comment="kpoint 219">
       <r>    2.4927    1.0000 </r>
       <r>    2.9252    1.0000 </r>
       <r>    2.9252    1.0000 </r>
       <r>    3.3431    1.0000 </r>
       <r>    3.8300    1.0000 </r>
       <r>    4.2456    1.0000 </r>
       <r>    4.2456    1.0000 </r>
       <r>    4.6737    1.0000 </r>
       <r>   17.9289    0.0000 </r>
       <r>   18.2023    0.0000 </r>
       <r>   18.2051    0.0000 </r>
       <r>   18.5295    0.0000 </r>
       <r>   18.5556    0.0000 </r>
       <r>   18.6018    0.0000 </r>
      </set>
      <set comment="kpoint 220">
       <r>    2.8820    1.0000 </r>
       <r>    3.3003    1.0000 </r>
       <r>    3.3003    1.0000 </r>
       <r>    3.3003    1.0000 </r>
       <r>    3.7864    1.0000 </r>
       <r>    3.7864    1.0000 </r>
       <r>    3.7864    1.0000 </r>
       <r>    4.2025    1.0000 </r>
       <r>   18.8832    0.0000 </r>
       <r>   18.8842    0.0000 </r>
       <r>   18.8885    0.0000 </r>
       <r>   18.8963    0.0000 </r>
       <r>   18.9032    0.0000 </r>
       <r>   19.0377    0.0000 </r>
      </set>
     </set>
    </set>
   </array>
  </eigenvalues>
  <separator name="orbital magnetization" >
   <v name="MAGDIPOLOUT">      0.00000000      0.00000000      0.00000000</v>
  </separator>
  <dos>
   <i name="efermi">      8.03341588 </i>
   <total>
    <array>
     <dimension dim="1">gridpoints</dimension>
     <dimension dim="2">spin</dimension>
     <field>energy</field>
     <field>total</field>
     <field>integrated</field>
     <set>
      <set comment="spin 1">
       <r>    -5.1112     0.0000     0.0000 </r>
       <r>    -5.0240     0.0000     0.0000 </r>
       <r>    -4.9369     0.0000     0.0000 </r>
       <r>    -4.8497     0.0000     0.0000 </r>
       <r>    -4.7625    -0.0000    -0.0000 </r>
       <r>    -4.6754    -0.0000    -0.0000 </r>
       <r>    -4.5882    -0.0000    -0.0000 </r>
       <r>    -4.5010    -0.0000    -0.0000 </r>
       <r>    -4.4139    -0.0000    -0.0000 </r>
       <r>    -4.3267    -0.0000    -0.0000 </r>
       <r>    -4.2396    -0.0000    -0.0000 </r>
       <r>    -4.1524    -0.0000    -0.0000 </r>
       <r>    -4.0652    -0.0000    -0.0000 </r>
       <r>    -3.9781    -0.0000    -0.0000 </r>
       <r>    -3.8909    -0.0000    -0.0000 </r>
       <r>    -3.8037    -0.0000    -0.0000 </r>
       <r>    -3.7166    -0.0000    -0.0000 </r>
       <r>    -3.6294    -0.0000    -0.0000 </r>
       <r>    -3.5422    -0.0003    -0.0000 </r>
       <r>    -3.4551    -0.0013    -0.0001 </r>
       <r>    -3.3679    -0.0038    -0.0005 </r>
       <r>    -3.2808    -0.0053    -0.0009 </r>
       <r>    -3.1936     0.0051    -0.0005 </r>
       <r>    -3.1064     0.0409     0.0031 </r>
       <r>    -3.0193     0.1016     0.0119 </r>
       <r>    -2.9321     0.1681     0.0266 </r>
       <r>    -2.8449     0.2230     0.0460 </r>
       <r>    -2.7578     0.2642     0.0690 </r>
       <r>    -2.6706     0.2978     0.0950 </r>
       <r>    -2.5835     0.3271     0.1235 </r>
       <r>    -2.4963     0.3539     0.1543 </r>
       <r>    -2.4091     0.3811     0.1876 </r>
       <r>    -2.3220     0.4046     0.2228 </r>
       <r>    -2.2348     0.4242     0.2598 </r>
       <r>    -2.1476     0.4493     0.2990 </r>
       <r>    -2.0605     0.4737     0.3403 </r>
       <r>    -1.9733     0.4870     0.3827 </r>
       <r>    -1.8862     0.5020     0.4265 </r>
       <r>    -1.7990     0.5306     0.4727 </r>
       <r>    -1.7118     0.5554     0.5211 </r>
       <r>    -1.6247     0.5579     0.5697 </r>
       <r>    -1.5375     0.5646     0.6190 </r>
       <r>    -1.4503     0.6005     0.6713 </r>
       <r>    -1.3632     0.6305     0.7262 </r>
       <r>    -1.2760     0.6283     0.7810 </r>
       <r>    -1.1889     0.6259     0.8356 </r>
       <r>    -1.1017     0.6494     0.8922 </r>
       <r>    -1.0145     0.6833     0.9517 </r>
       <r>    -0.9274     0.7065     1.0133 </r>
       <r>    -0.8402     0.7100     1.0752 </r>
       <r>    -0.7530     0.6970     1.1359 </r>
       <r>    -0.6659     0.7002     1.1970 </r>
       <r>    -0.5787     0.7503     1.2624 </r>
       <r>    -0.4916     0.8011     1.3322 </r>
       <r>    -0.4044     0.7893     1.4010 </r>
       <r>    -0.3172     0.7486     1.4662 </r>
       <r>    -0.2301     0.7587     1.5324 </r>
       <r>    -0.1429     0.8161     1.6035 </r>
       <r>    -0.0557     0.8509     1.6777 </r>
       <r>     0.0314     0.8515     1.7519 </r>
       <r>     0.1186     0.8511     1.8261 </r>
       <r>     0.2058     0.8490     1.9001 </r>
       <r>     0.2929     0.8437     1.9736 </r>
       <r>     0.3801     0.8556     2.0482 </r>
       <r>     0.4672     0.8982     2.1265 </r>
       <r>     0.5544     0.9508     2.2094 </r>
       <r>     0.6416     0.9640     2.2934 </r>
       <r>     0.7287     0.9241     2.3739 </r>
       <r>     0.8159     0.8782     2.4505 </r>
       <r>     0.9031     0.8899     2.5281 </r>
       <r>     0.9902     0.9742     2.6130 </r>
       <r>     1.0774     1.0500     2.7045 </r>
       <r>     1.1645     1.0341     2.7946 </r>
       <r>     1.2517     0.9713     2.8793 </r>
       <r>     1.3389     0.9600     2.9630 </r>
       <r>     1.4260     1.0017     3.0503 </r>
       <r>     1.5132     1.0286     3.1399 </r>
       <r>     1.6004     1.0309     3.2298 </r>
       <r>     1.6875     1.0478     3.3211 </r>
       <r>     1.7747     1.0858     3.4158 </r>
       <r>     1.8618     1.1183     3.5133 </r>
       <r>     1.9490     1.1117     3.6102 </r>
       <r>     2.0362     1.0574     3.7023 </r>
       <r>     2.1233     1.0122     3.7905 </r>
       <r>     2.2105     1.0561     3.8826 </r>
       <r>     2.2977     1.1590     3.9836 </r>
       <r>     2.3848     1.2112     4.0892 </r>
       <r>     2.4720     1.2037     4.1941 </r>
       <r>     2.5591     1.1754     4.2966 </r>
       <r>     2.6463     1.1171     4.3939 </r>
       <r>     2.7335     1.0763     4.4877 </r>
       <r>     2.8206     1.1321     4.5864 </r>
       <r>     2.9078     1.2362     4.6942 </r>
       <r>     2.9950     1.2730     4.8051 </r>
       <r>     3.0821     1.2426     4.9134 </r>
       <r>     3.1693     1.2222     5.0200 </r>
       <r>     3.2564     1.2284     5.1270 </r>
       <r>     3.3436     1.2521     5.2362 </r>
       <r>     3.4308     1.2825     5.3480 </r>
       <r>     3.5179     1.2688     5.4586 </r>
       <r>     3.6051     1.2086     5.5639 </r>
       <r>     3.6923     1.1976     5.6683 </r>
       <r>     3.7794     1.2919     5.7809 </r>
       <r>     3.8666     1.3986     5.9028 </r>
       <r>     3.9537     1.4045     6.0252 </r>
       <r>     4.0409     1.3268     6.1409 </r>
       <r>     4.1281     1.2521     6.2500 </r>
       <r>     4.2152     1.2328     6.3575 </r>
       <r>     4.3024     1.2772     6.4688 </r>
       <r>     4.3896     1.3753     6.5887 </r>
       <r>     4.4767     1.4763     6.7173 </r>
       <r>     4.5639     1.4934     6.8475 </r>
       <r>     4.6511     1.4201     6.9713 </r>
       <r>     4.7382     1.3515     7.0891 </r>
       <r>     4.8254     1.3514     7.2069 </r>
       <r>     4.9125     1.4100     7.3298 </r>
       <r>     4.9997     1.4997     7.4605 </r>
       <r>     5.0869     1.5729     7.5976 </r>
       <r>     5.1740     1.5840     7.7357 </r>
       <r>     5.2612     1.5488     7.8707 </r>
       <r>     5.3484     1.4992     8.0013 </r>
       <r>     5.4355     1.4574     8.1284 </r>
       <r>     5.5227     1.4750     8.2569 </r>
       <r>     5.6098     1.5402     8.3912 </r>
       <r>     5.6970     1.5514     8.5264 </r>
       <r>     5.7842     1.4827     8.6556 </r>
       <r>     5.8713     1.4093     8.7785 </r>
       <r>     5.9585     1.3695     8.8978 </r>
       <r>     6.0457     1.3567     9.0161 </r>
       <r>     6.1328     1.3929     9.1375 </r>
       <r>     6.2200     1.4492     9.2638 </r>
       <r>     6.3071     1.4395     9.3893 </r>
       <r>     6.3943     1.3901     9.5105 </r>
       <r>     6.4815     1.3683     9.6297 </r>
       <r>     6.5686     1.3638     9.7486 </r>
       <r>     6.6558     1.4124     9.8717 </r>
       <r>     6.7430     1.5440    10.0063 </r>
       <r>     6.8301     1.6363    10.1489 </r>
       <r>     6.9173     1.5878    10.2873 </r>
       <r>     7.0044     1.4879    10.4170 </r>
       <r>     7.0916     1.4671    10.5449 </r>
       <r>     7.1788     1.5254    10.6778 </r>
       <r>     7.2659     1.5896    10.8164 </r>
       <r>     7.3531     1.6160    10.9572 </r>
       <r>     7.4403     1.5785    11.0948 </r>
       <r>     7.5274     1.4926    11.2249 </r>
       <r>     7.6146     1.4702    11.3531 </r>
       <r>     7.7017     1.5738    11.4903 </r>
       <r>     7.7889     1.6671    11.6356 </r>
       <r>     7.8761     1.6101    11.7759 </r>
       <r>     7.9632     1.4620    11.9033 </r>
       <r>     8.0504     1.3781    12.0235 </r>
       <r>     8.1376     1.4605    12.1508 </r>
       <r>     8.2247     1.6859    12.2977 </r>
       <r>     8.3119     1.8954    12.4629 </r>
       <r>     8.3991     1.9280    12.6310 </r>
       <r>     8.4862     1.7904    12.7870 </r>
       <r>     8.5734     1.6218    12.9284 </r>
       <r>     8.6605     1.5368    13.0623 </r>
       <r>     8.7477     1.5622    13.1985 </r>
       <r>     8.8349     1.6378    13.3413 </r>
       <r>     8.9220     1.6751    13.4873 </r>
       <r>     9.0092     1.6744    13.6332 </r>
       <r>     9.0964     1.6799    13.7796 </r>
       <r>     9.1835     1.6817    13.9262 </r>
       <r>     9.2707     1.6988    14.0743 </r>
       <r>     9.3578     1.7767    14.2291 </r>
       <r>     9.4450     1.8543    14.3908 </r>
       <r>     9.5322     1.8336    14.5506 </r>
       <r>     9.6193     1.7409    14.7023 </r>
       <r>     9.7065     1.6599    14.8470 </r>
       <r>     9.7937     1.6023    14.9867 </r>
       <r>     9.8808     1.5718    15.1237 </r>
       <r>     9.9680     1.6460    15.2671 </r>
       <r>    10.0551     1.8375    15.4273 </r>
       <r>    10.1423     2.0250    15.6038 </r>
       <r>    10.2295     2.0821    15.7853 </r>
       <r>    10.3166     1.9152    15.9522 </r>
       <r>    10.4038     1.5992    16.0916 </r>
       <r>    10.4910     1.4841    16.2210 </r>
       <r>    10.5781     1.7435    16.3729 </r>
       <r>    10.6653     2.0401    16.5508 </r>
       <r>    10.7524     2.0527    16.7297 </r>
       <r>    10.8396     1.9097    16.8961 </r>
       <r>    10.9268     1.7945    17.0525 </r>
       <r>    11.0139     1.7071    17.2013 </r>
       <r>    11.1011     1.7143    17.3508 </r>
       <r>    11.1883     1.8573    17.5127 </r>
       <r>    11.2754     1.9609    17.6836 </r>
       <r>    11.3626     1.9414    17.8528 </r>
       <r>    11.4497     1.9615    18.0238 </r>
       <r>    11.5369     2.0587    18.2032 </r>
       <r>    11.6241     2.0625    18.3830 </r>
       <r>    11.7112     1.9379    18.5519 </r>
       <r>    11.7984     1.8234    18.7108 </r>
       <r>    11.8856     1.8124    18.8688 </r>
       <r>    11.9727     1.8853    19.0331 </r>
       <r>    12.0599     1.9494    19.2030 </r>
       <r>    12.1470     1.9460    19.3727 </r>
       <r>    12.2342     1.9229    19.5403 </r>
       <r>    12.3214     1.9790    19.7128 </r>
       <r>    12.4085     2.1487    19.9000 </r>
       <r>    12.4957     2.2846    20.0992 </r>
       <r>    12.5829     2.2035    20.2912 </r>
       <r>    12.6700     1.9730    20.4632 </r>
       <r>    12.7572     1.8340    20.6231 </r>
       <r>    12.8444     1.9078    20.7894 </r>
       <r>    12.9315     2.0731    20.9701 </r>
       <r>    13.0187     2.1342    21.1561 </r>
       <r>    13.1058     2.1133    21.3403 </r>
       <r>    13.1930     2.1442    21.5272 </r>
       <r>    13.2802     2.1875    21.7178 </r>
       <r>    13.3673     2.1888    21.9086 </r>
       <r>    13.4545     2.2170    22.1019 </r>
       <r>    13.5417     2.2536    22.2983 </r>
       <r>    13.6288     2.2478    22.4942 </r>
       <r>    13.7160     2.3110    22.6957 </r>
       <r>    13.8031     2.4669    22.9107 </r>
       <r>    13.8903     2.5159    23.1300 </r>
       <r>    13.9775     2.3634    23.3360 </r>
       <r>    14.0646     2.1584    23.5241 </r>
       <r>    14.1518     2.0961    23.7068 </r>
       <r>    14.2390     2.1982    23.8984 </r>
       <r>    14.3261     2.2900    24.0980 </r>
       <r>    14.4133     2.2568    24.2947 </r>
       <r>    14.5004     2.1671    24.4836 </r>
       <r>    14.5876     2.0725    24.6643 </r>
       <r>    14.6748     1.9864    24.8374 </r>
       <r>    14.7619     1.9784    25.0098 </r>
       <r>    14.8491     2.0291    25.1867 </r>
       <r>    14.9363     2.0325    25.3639 </r>
       <r>    15.0234     2.0103    25.5391 </r>
       <r>    15.1106     1.9988    25.7133 </r>
       <r>    15.1977     1.8684    25.8762 </r>
       <r>    15.2849     1.5733    26.0133 </r>
       <r>    15.3721     1.3267    26.1289 </r>
       <r>    15.4592     1.3294    26.2448 </r>
       <r>    15.5464     1.5140    26.3768 </r>
       <r>    15.6336     1.6261    26.5185 </r>
       <r>    15.7207     1.5045    26.6496 </r>
       <r>    15.8079     1.2340    26.7572 </r>
       <r>    15.8950     1.0150    26.8457 </r>
       <r>    15.9822     0.9453    26.9281 </r>
       <r>    16.0694     0.9417    27.0102 </r>
       <r>    16.1565     0.8886    27.0876 </r>
       <r>    16.2437     0.8044    27.1577 </r>
       <r>    16.3309     0.7601    27.2240 </r>
       <r>    16.4180     0.7551    27.2898 </r>
       <r>    16.5052     0.7501    27.3552 </r>
       <r>    16.5924     0.7140    27.4174 </r>
       <r>    16.6795     0.6227    27.4717 </r>
       <r>    16.7667     0.5082    27.5160 </r>
       <r>    16.8538     0.4584    27.5559 </r>
       <r>    16.9410     0.4667    27.5966 </r>
       <r>    17.0282     0.4341    27.6344 </r>
       <r>    17.1153     0.3682    27.6665 </r>
       <r>    17.2025     0.3699    27.6988 </r>
       <r>    17.2897     0.4254    27.7359 </r>
       <r>    17.3768     0.4176    27.7723 </r>
       <r>    17.4640     0.3446    27.8023 </r>
       <r>    17.5511     0.2990    27.8284 </r>
       <r>    17.6383     0.2708    27.8520 </r>
       <r>    17.7255     0.2138    27.8706 </r>
       <r>    17.8126     0.1783    27.8861 </r>
       <r>    17.8998     0.1909    27.9028 </r>
       <r>    17.9870     0.1874    27.9191 </r>
       <r>    18.0741     0.1450    27.9318 </r>
       <r>    18.1613     0.1168    27.9419 </r>
       <r>    18.2484     0.1179    27.9522 </r>
       <r>    18.3356     0.1096    27.9618 </r>
       <r>    18.4228     0.0858    27.9692 </r>
       <r>    18.5099     0.0742    27.9757 </r>
       <r>    18.5971     0.0705    27.9819 </r>
       <r>    18.6843     0.0523    27.9864 </r>
       <r>    18.7714     0.0324    27.9892 </r>
       <r>    18.8586     0.0333    27.9921 </r>
       <r>    18.9457     0.0411    27.9957 </r>
       <r>    19.0329     0.0334    27.9986 </r>
       <r>    19.1201     0.0155    28.0000 </r>
       <r>    19.2072     0.0030    28.0002 </r>
       <r>    19.2944    -0.0011    28.0001 </r>
       <r>    19.3816    -0.0011    28.0000 </r>
       <r>    19.4687    -0.0004    28.0000 </r>
       <r>    19.5559    -0.0001    28.0000 </r>
       <r>    19.6430    -0.0000    28.0000 </r>
       <r>    19.7302    -0.0000    28.0000 </r>
       <r>    19.8174    -0.0000    28.0000 </r>
       <r>    19.9045    -0.0000    28.0000 </r>
       <r>    19.9917    -0.0000    28.0000 </r>
       <r>    20.0789    -0.0000    28.0000 </r>
       <r>    20.1660    -0.0000    28.0000 </r>
       <r>    20.2532    -0.0000    28.0000 </r>
       <r>    20.3404    -0.0000    28.0000 </r>
       <r>    20.4275     0.0000    28.0000 </r>
       <r>    20.5147     0.0000    28.0000 </r>
       <r>    20.6018     0.0000    28.0000 </r>
       <r>    20.6890     0.0000    28.0000 </r>
       <r>    20.7762     0.0000    28.0000 </r>
       <r>    20.8633     0.0000    28.0000 </r>
       <r>    20.9505     0.0000    28.0000 </r>
       <r>    21.0377     0.0000    28.0000 </r>
      </set>
     </set>
    </array>
   </total>
  </dos>
 </calculation>
 <structure name="finalpos" >
  <crystal>
   <varray name="basis" >
    <v>       4.03892969       0.00000000       0.00000000 </v>
    <v>      -0.00000000       4.03892969       0.00000000 </v>
    <v>       0.00000000       0.00000000       4.03892969 </v>
   </varray>
   <i name="volume">     65.88687052 </i>
   <varray name="rec_basis" >
    <v>       0.24759035       0.00000000      -0.00000000 </v>
    <v>       0.00000000       0.24759035       0.00000000 </v>
    <v>      -0.00000000      -0.00000000       0.24759035 </v>
   </varray>
  </crystal>
  <varray name="positions" >
   <v>       0.00000000       0.00000000       0.00000000 </v>
   <v>       0.00000000       0.50000000       0.50000000 </v>
   <v>       0.50000000       0.00000000       0.50000000 </v>
   <v>       0.50000000       0.50000000       0.00000000 </v>
  </varray>
 </structure>
</modeling>
