ITEM: TIMESTEP
0
ITEM: NUMBER OF ATOMS
4
ITEM: BOX BOUNDS xy xz yz pp pp pp
0.0000000000000000e+00 4.0369359481000000e+00 -0.0000000000000000e+00
0.0000000000000000e+00 4.0369359481000000e+00 -0.0000000000000000e+00
0.0000000000000000e+00 4.0369359481000000e+00 -0.0000000000000000e+00
ITEM: ATOMS id type xs ys zs fx fy fz
1 1 0 0 0 2.36904e-10 2.36905e-10 2.36905e-10
4 1 0.5 0 0.5 -2.36904e-10 2.36905e-10 -2.36905e-10
3 1 0.5 0.5 0 -2.36904e-10 -2.36905e-10 2.36904e-10
2 1 0 0.5 0.5 2.36904e-10 -2.36905e-10 -2.36904e-10
ITEM: TIMESTEP
1
ITEM: NUMBER OF ATOMS
4
ITEM: BOX BOUNDS xy xz yz pp pp pp
0.0000000000000000e+00 4.0369359481000000e+00 -0.0000000000000000e+00
0.0000000000000000e+00 4.0369359481000000e+00 -0.0000000000000000e+00
0.0000000000000000e+00 4.0369359481000000e+00 -0.0000000000000000e+00
ITEM: ATOMS id type xs ys zs fx fy fz
1 1 6.19284e-12 6.19284e-12 6.19285e-12 -4.71845e-16 -4.61294e-16 -4.45561e-16
4 1 0.5 6.19284e-12 0.5 5.41234e-16 -7.43187e-16 5.01723e-16
3 1 0.5 0.5 6.19284e-12 6.245e-16 5.04147e-16 -7.36185e-16
2 1 6.19284e-12 0.5 0.5 -6.93889e-16 6.68072e-16 6.33317e-16
