ITEM: TIMESTEP
0
ITEM: NUMBER OF ATOMS
4
ITEM: BOX BOUNDS xy xz yz pp pp pp
0.0000000000000000e+00 4.0701985079999998e+00 0.0000000000000000e+00
0.0000000000000000e+00 4.0499988870000001e+00 0.0000000000000000e+00
0.0000000000000000e+00 4.0499988870000001e+00 0.0000000000000000e+00
ITEM: ATOMS id type xs ys zs fx fy fz
1 1 0 0 0 0 -8.32667e-17 -1.38778e-16
2 1 0 0.5 0.5 0 8.32667e-17 1.94289e-16
3 1 0.5 0.5 0 0 -5.55112e-17 1.11022e-16
4 1 0.5 0 0.5 0 5.55112e-17 -1.66533e-16
ITEM: TIMESTEP
1
ITEM: NUMBER OF ATOMS
4
ITEM: BOX BOUNDS xy xz yz pp pp pp
0.0000000000000000e+00 4.0701985079999998e+00 0.0000000000000000e+00
0.0000000000000000e+00 4.0499988870000001e+00 0.0000000000000000e+00
0.0000000000000000e+00 4.0499988870000001e+00 0.0000000000000000e+00
ITEM: ATOMS id type xs ys zs fx fy fz
1 1 0 0 0 0 -8.32667e-17 -1.38778e-16
2 1 0 0.5 0.5 0 8.32667e-17 1.94289e-16
3 1 0.5 0.5 0 0 -5.55112e-17 1.11022e-16
4 1 0.5 0 0.5 0 5.55112e-17 -1.66533e-16
