
4 atoms
1 atom types
   0.0000000000    4.0369359481 xlo xhi
   0.0000000000    4.0367340963 ylo yhi
   0.0000000000    4.0369359481 zlo zhi
  -0.0403693595    0.0000000000    0.0000000000 xy xz yz

Atoms # atomic

     1      1    0.0000000000    0.0000000000    0.0000000000
     2      1   -0.0201846797    2.0183670482    2.0184679741
     3      1    1.9982832944    2.0183670482    0.0000000000
     4      1    2.0184679741    0.0000000000    2.0184679741
