ITEM: TIMESTEP
0
ITEM: NUMBER OF ATOMS
4
ITEM: BOX BOUNDS xy xz yz pp pp pp
-4.0369359500000000e-02 4.0369359481000000e+00 -4.0369359500000000e-02
0.0000000000000000e+00 4.0367340963000000e+00 0.0000000000000000e+00
0.0000000000000000e+00 4.0369359481000000e+00 0.0000000000000000e+00
ITEM: ATOMS id type xs ys zs fx fy fz
1 1 0 0 0 3.43134e-10 2.5306e-10 2.36873e-10
4 1 0.5 0 0.5 -1.30776e-10 2.35737e-10 -2.36873e-10
3 1 0.5 0.5 0 -3.43134e-10 -2.5306e-10 2.36873e-10
2 1 1.25095e-11 0.5 0.5 1.30776e-10 -2.35737e-10 -2.36873e-10
ITEM: TIMESTEP
2
ITEM: NUMBER OF ATOMS
4
ITEM: BOX BOUNDS xy xz yz pp pp pp
-4.0369359500000000e-02 4.0369359481000000e+00 -4.0369359500000000e-02
0.0000000000000000e+00 4.0367340963000000e+00 0.0000000000000000e+00
0.0000000000000000e+00 4.0369359481000000e+00 0.0000000000000000e+00
ITEM: ATOMS id type xs ys zs fx fy fz
1 1 1.24394e-11 6.18514e-12 6.20839e-12 3.00884e-13 3.1181e-13 -5.95398e-13
4 1 0.5 6.18598e-12 0.5 -2.55893e-13 2.77486e-13 5.95436e-13
3 1 0.5 0.5 6.20833e-12 -3.02106e-13 -3.10813e-13 -5.93765e-13
2 1 1.24411e-11 0.5 0.5 2.571e-13 -2.78567e-13 5.9371e-13
