 running   14 mpi-ranks, with    2 threads/rank, on    1 nodes
 distrk:  each k-point on   14 cores,    1 groups
 distr:  one band on    1 cores,   14 groups
 vasp.6.4.2 20Jul23 (build Apr 22 2024 22:35:45) complex                         
 POSCAR found type information on POSCAR Al
 POSCAR found :  1 types and       4 ions
 scaLAPACK will be used
 -----------------------------------------------------------------------------
|                                                                             |
|               ----> ADVICE to this user running VASP <----                  |
|                                                                             |
|     You have a (more or less) 'small supercell' and for smaller cells       |
|     it is recommended to use the reciprocal-space projection scheme!        |
|     The real-space optimization is not efficient for small cells and it     |
|     is also less accurate ...                                               |
|     Therefore, set LREAL=.FALSE. in the INCAR file.                         |
|                                                                             |
 -----------------------------------------------------------------------------

 LDA part: xc-table for Pade appr. of Perdew
 POSCAR, INCAR and KPOINTS ok, starting setup
 FFT: planning ... GRIDC
 FFT: planning ... GRID_SOFT
 FFT: planning ... GRID
 WAVECAR not read
 entering main loop
       N       E                     dE             d eps       ncg     rms          rms(c)
DAV:   1    -0.115630011792E+01   -0.11563E+01   -0.40212E+03  8092   0.534E+02
DAV:   2    -0.145327079980E+02   -0.13376E+02   -0.12999E+02 11774   0.513E+01
DAV:   3    -0.146021510117E+02   -0.69443E-01   -0.69174E-01 10332   0.497E+00
DAV:   4    -0.146023028250E+02   -0.15181E-03   -0.15181E-03 13482   0.224E-01
DAV:   5    -0.146023028836E+02   -0.58507E-07   -0.58475E-07 10528   0.349E-03    0.326E+00
RMM:   6    -0.145391307192E+02    0.63172E-01   -0.30254E-03  8008   0.317E-01    0.192E+00
RMM:   7    -0.144937822177E+02    0.45349E-01   -0.10096E-02  8008   0.555E-01    0.250E-01
RMM:   8    -0.144937532796E+02    0.28938E-04   -0.81735E-04  8008   0.185E-01    0.285E-02
RMM:   9    -0.144937584479E+02   -0.51683E-05   -0.10242E-04  8008   0.751E-02    0.276E-02
RMM:  10    -0.144937562737E+02    0.21742E-05   -0.21936E-05  8008   0.307E-02    0.840E-02
RMM:  11    -0.144937567790E+02   -0.50534E-06   -0.33421E-06  7722   0.131E-02
   1 F= -.14493757E+02 E0= -.14493680E+02  d E =-.144938E+02
 curvature:   0.00 expect dE= 0.000E+00 dE for cont linesearch  0.000E+00
 trial: gam= 0.00000 g(F)=  0.104E-62 g(S)=  0.131E-31 ort = 0.000E+00 (trialstep = 0.100E+01)
 search vector abs. value=  0.100E-09
 reached required accuracy - stopping structural energy minimisation
