<?xml version="1.0" encoding="ISO-8859-1"?>
<modeling>
 <generator>
  <i name="program" type="string">vasp </i>
  <i name="version" type="string">6.4.2  </i>
  <i name="subversion" type="string">20Jul23 (build Apr 22 2024 22:35:45) complex                          parallel </i>
  <i name="platform" type="string">LinuxGNU </i>
  <i name="date" type="string">2024 05 26 </i>
  <i name="time" type="string">15:44:30 </i>
 </generator>
 <incar>
  <i type="string" name="SYSTEM">Al fcc relaxation</i>
  <i type="string" name="PREC">Accurate</i>
  <i type="string" name="ALGO">Fast</i>
  <i type="int" name="NELM">    60</i>
  <i type="int" name="NELMIN">     4</i>
  <i type="int" name="IBRION">     2</i>
  <i name="EDIFF">      0.00000100</i>
  <i type="int" name="NSW">   100</i>
  <i type="int" name="ISIF">     4</i>
  <i name="ENCUT">    400.00000000</i>
  <i type="string" name="LREAL">Auto</i>
  <i type="int" name="ISMEAR">     1</i>
  <i name="SIGMA">      0.20000000</i>
  <i name="KSPACING">      0.08000000</i>
  <i type="logical" name="LWAVE"> F  </i>
  <i type="logical" name="LCHARG"> F  </i>
 </incar>
 <primitive_cell>
  <structure name="primitive_cell" >
   <crystal>
    <varray name="basis" >
     <v>       1.91297491      -1.91297491       0.00000000 </v>
     <v>       1.91297491       0.00000000       1.91297491 </v>
     <v>       0.00000000      -1.91297491       1.91297491 </v>
    </varray>
    <i name="volume">     14.00095999 </i>
    <varray name="rec_basis" >
     <v>       0.26137301      -0.26137301      -0.26137301 </v>
     <v>       0.26137301       0.26137301       0.26137301 </v>
     <v>      -0.26137301      -0.26137301       0.26137301 </v>
    </varray>
   </crystal>
   <varray name="positions" >
    <v>       0.00000000       0.00000000       0.00000000 </v>
   </varray>
  </structure>
  <varray name="primitive_index" >
   <v type="int" >        1 </v>
  </varray>
 </primitive_cell>
 <kpoints>
  <generation param="Monkhorst-Pack">
   <v type="int" name="divisions">      21       21       21 </v>
   <v name="usershift">      0.00000000       0.00000000       0.00000000 </v>
   <v name="genvec1">      0.04761905       0.00000000       0.00000000 </v>
   <v name="genvec2">      0.00000000       0.04761905       0.00000000 </v>
   <v name="genvec3">     -0.00000000      -0.00000000       0.04761905 </v>
   <v name="shift">      0.00000000       0.00000000       0.00000000 </v>
  </generation>
  <varray name="kpointlist" >
   <v>       0.00000000       0.00000000       0.00000000 </v>
   <v>       0.04761905       0.00000000       0.00000000 </v>
   <v>       0.09523810       0.00000000       0.00000000 </v>
   <v>       0.14285714       0.00000000       0.00000000 </v>
   <v>       0.19047619       0.00000000       0.00000000 </v>
   <v>       0.23809524       0.00000000       0.00000000 </v>
   <v>       0.28571429       0.00000000       0.00000000 </v>
   <v>       0.33333333       0.00000000       0.00000000 </v>
   <v>       0.38095238       0.00000000       0.00000000 </v>
   <v>       0.42857143       0.00000000       0.00000000 </v>
   <v>       0.47619048       0.00000000       0.00000000 </v>
   <v>       0.04761905       0.04761905       0.00000000 </v>
   <v>       0.09523810       0.04761905       0.00000000 </v>
   <v>       0.14285714       0.04761905       0.00000000 </v>
   <v>       0.19047619       0.04761905       0.00000000 </v>
   <v>       0.23809524       0.04761905       0.00000000 </v>
   <v>       0.28571429       0.04761905       0.00000000 </v>
   <v>       0.33333333       0.04761905       0.00000000 </v>
   <v>       0.38095238       0.04761905       0.00000000 </v>
   <v>       0.42857143       0.04761905       0.00000000 </v>
   <v>       0.47619048       0.04761905       0.00000000 </v>
   <v>       0.09523810       0.09523810       0.00000000 </v>
   <v>       0.14285714       0.09523810       0.00000000 </v>
   <v>       0.19047619       0.09523810       0.00000000 </v>
   <v>       0.23809524       0.09523810       0.00000000 </v>
   <v>       0.28571429       0.09523810       0.00000000 </v>
   <v>       0.33333333       0.09523810       0.00000000 </v>
   <v>       0.38095238       0.09523810       0.00000000 </v>
   <v>       0.42857143       0.09523810       0.00000000 </v>
   <v>       0.47619048       0.09523810       0.00000000 </v>
   <v>       0.14285714       0.14285714       0.00000000 </v>
   <v>       0.19047619       0.14285714       0.00000000 </v>
   <v>       0.23809524       0.14285714       0.00000000 </v>
   <v>       0.28571429       0.14285714       0.00000000 </v>
   <v>       0.33333333       0.14285714       0.00000000 </v>
   <v>       0.38095238       0.14285714       0.00000000 </v>
   <v>       0.42857143       0.14285714       0.00000000 </v>
   <v>       0.47619048       0.14285714       0.00000000 </v>
   <v>       0.19047619       0.19047619       0.00000000 </v>
   <v>       0.23809524       0.19047619       0.00000000 </v>
   <v>       0.28571429       0.19047619       0.00000000 </v>
   <v>       0.33333333       0.19047619       0.00000000 </v>
   <v>       0.38095238       0.19047619       0.00000000 </v>
   <v>       0.42857143       0.19047619       0.00000000 </v>
   <v>       0.47619048       0.19047619       0.00000000 </v>
   <v>       0.23809524       0.23809524       0.00000000 </v>
   <v>       0.28571429       0.23809524       0.00000000 </v>
   <v>       0.33333333       0.23809524       0.00000000 </v>
   <v>       0.38095238       0.23809524       0.00000000 </v>
   <v>       0.42857143       0.23809524       0.00000000 </v>
   <v>       0.47619048       0.23809524       0.00000000 </v>
   <v>       0.28571429       0.28571429       0.00000000 </v>
   <v>       0.33333333       0.28571429       0.00000000 </v>
   <v>       0.38095238       0.28571429       0.00000000 </v>
   <v>       0.42857143       0.28571429       0.00000000 </v>
   <v>       0.47619048       0.28571429       0.00000000 </v>
   <v>       0.33333333       0.33333333       0.00000000 </v>
   <v>       0.38095238       0.33333333       0.00000000 </v>
   <v>       0.42857143       0.33333333       0.00000000 </v>
   <v>       0.47619048       0.33333333       0.00000000 </v>
   <v>       0.38095238       0.38095238       0.00000000 </v>
   <v>       0.42857143       0.38095238       0.00000000 </v>
   <v>       0.47619048       0.38095238       0.00000000 </v>
   <v>       0.42857143       0.42857143       0.00000000 </v>
   <v>       0.47619048       0.42857143       0.00000000 </v>
   <v>       0.47619048       0.47619048       0.00000000 </v>
   <v>       0.04761905       0.04761905       0.04761905 </v>
   <v>       0.09523810       0.04761905       0.04761905 </v>
   <v>       0.14285714       0.04761905       0.04761905 </v>
   <v>       0.19047619       0.04761905       0.04761905 </v>
   <v>       0.23809524       0.04761905       0.04761905 </v>
   <v>       0.28571429       0.04761905       0.04761905 </v>
   <v>       0.33333333       0.04761905       0.04761905 </v>
   <v>       0.38095238       0.04761905       0.04761905 </v>
   <v>       0.42857143       0.04761905       0.04761905 </v>
   <v>       0.47619048       0.04761905       0.04761905 </v>
   <v>       0.09523810       0.09523810       0.04761905 </v>
   <v>       0.14285714       0.09523810       0.04761905 </v>
   <v>       0.19047619       0.09523810       0.04761905 </v>
   <v>       0.23809524       0.09523810       0.04761905 </v>
   <v>       0.28571429       0.09523810       0.04761905 </v>
   <v>       0.33333333       0.09523810       0.04761905 </v>
   <v>       0.38095238       0.09523810       0.04761905 </v>
   <v>       0.42857143       0.09523810       0.04761905 </v>
   <v>       0.47619048       0.09523810       0.04761905 </v>
   <v>       0.14285714       0.14285714       0.04761905 </v>
   <v>       0.19047619       0.14285714       0.04761905 </v>
   <v>       0.23809524       0.14285714       0.04761905 </v>
   <v>       0.28571429       0.14285714       0.04761905 </v>
   <v>       0.33333333       0.14285714       0.04761905 </v>
   <v>       0.38095238       0.14285714       0.04761905 </v>
   <v>       0.42857143       0.14285714       0.04761905 </v>
   <v>       0.47619048       0.14285714       0.04761905 </v>
   <v>       0.19047619       0.19047619       0.04761905 </v>
   <v>       0.23809524       0.19047619       0.04761905 </v>
   <v>       0.28571429       0.19047619       0.04761905 </v>
   <v>       0.33333333       0.19047619       0.04761905 </v>
   <v>       0.38095238       0.19047619       0.04761905 </v>
   <v>       0.42857143       0.19047619       0.04761905 </v>
   <v>       0.47619048       0.19047619       0.04761905 </v>
   <v>       0.23809524       0.23809524       0.04761905 </v>
   <v>       0.28571429       0.23809524       0.04761905 </v>
   <v>       0.33333333       0.23809524       0.04761905 </v>
   <v>       0.38095238       0.23809524       0.04761905 </v>
   <v>       0.42857143       0.23809524       0.04761905 </v>
   <v>       0.47619048       0.23809524       0.04761905 </v>
   <v>       0.28571429       0.28571429       0.04761905 </v>
   <v>       0.33333333       0.28571429       0.04761905 </v>
   <v>       0.38095238       0.28571429       0.04761905 </v>
   <v>       0.42857143       0.28571429       0.04761905 </v>
   <v>       0.47619048       0.28571429       0.04761905 </v>
   <v>       0.33333333       0.33333333       0.04761905 </v>
   <v>       0.38095238       0.33333333       0.04761905 </v>
   <v>       0.42857143       0.33333333       0.04761905 </v>
   <v>       0.47619048       0.33333333       0.04761905 </v>
   <v>       0.38095238       0.38095238       0.04761905 </v>
   <v>       0.42857143       0.38095238       0.04761905 </v>
   <v>       0.47619048       0.38095238       0.04761905 </v>
   <v>       0.42857143       0.42857143       0.04761905 </v>
   <v>       0.47619048       0.42857143       0.04761905 </v>
   <v>       0.47619048       0.47619048       0.04761905 </v>
   <v>       0.09523810       0.09523810       0.09523810 </v>
   <v>       0.14285714       0.09523810       0.09523810 </v>
   <v>       0.19047619       0.09523810       0.09523810 </v>
   <v>       0.23809524       0.09523810       0.09523810 </v>
   <v>       0.28571429       0.09523810       0.09523810 </v>
   <v>       0.33333333       0.09523810       0.09523810 </v>
   <v>       0.38095238       0.09523810       0.09523810 </v>
   <v>       0.42857143       0.09523810       0.09523810 </v>
   <v>       0.47619048       0.09523810       0.09523810 </v>
   <v>       0.14285714       0.14285714       0.09523810 </v>
   <v>       0.19047619       0.14285714       0.09523810 </v>
   <v>       0.23809524       0.14285714       0.09523810 </v>
   <v>       0.28571429       0.14285714       0.09523810 </v>
   <v>       0.33333333       0.14285714       0.09523810 </v>
   <v>       0.38095238       0.14285714       0.09523810 </v>
   <v>       0.42857143       0.14285714       0.09523810 </v>
   <v>       0.47619048       0.14285714       0.09523810 </v>
   <v>       0.19047619       0.19047619       0.09523810 </v>
   <v>       0.23809524       0.19047619       0.09523810 </v>
   <v>       0.28571429       0.19047619       0.09523810 </v>
   <v>       0.33333333       0.19047619       0.09523810 </v>
   <v>       0.38095238       0.19047619       0.09523810 </v>
   <v>       0.42857143       0.19047619       0.09523810 </v>
   <v>       0.47619048       0.19047619       0.09523810 </v>
   <v>       0.23809524       0.23809524       0.09523810 </v>
   <v>       0.28571429       0.23809524       0.09523810 </v>
   <v>       0.33333333       0.23809524       0.09523810 </v>
   <v>       0.38095238       0.23809524       0.09523810 </v>
   <v>       0.42857143       0.23809524       0.09523810 </v>
   <v>       0.47619048       0.23809524       0.09523810 </v>
   <v>       0.28571429       0.28571429       0.09523810 </v>
   <v>       0.33333333       0.28571429       0.09523810 </v>
   <v>       0.38095238       0.28571429       0.09523810 </v>
   <v>       0.42857143       0.28571429       0.09523810 </v>
   <v>       0.47619048       0.28571429       0.09523810 </v>
   <v>       0.33333333       0.33333333       0.09523810 </v>
   <v>       0.38095238       0.33333333       0.09523810 </v>
   <v>       0.42857143       0.33333333       0.09523810 </v>
   <v>       0.47619048       0.33333333       0.09523810 </v>
   <v>       0.38095238       0.38095238       0.09523810 </v>
   <v>       0.42857143       0.38095238       0.09523810 </v>
   <v>       0.47619048       0.38095238       0.09523810 </v>
   <v>       0.42857143       0.42857143       0.09523810 </v>
   <v>       0.47619048       0.42857143       0.09523810 </v>
   <v>       0.47619048       0.47619048       0.09523810 </v>
   <v>       0.14285714       0.14285714       0.14285714 </v>
   <v>       0.19047619       0.14285714       0.14285714 </v>
   <v>       0.23809524       0.14285714       0.14285714 </v>
   <v>       0.28571429       0.14285714       0.14285714 </v>
   <v>       0.33333333       0.14285714       0.14285714 </v>
   <v>       0.38095238       0.14285714       0.14285714 </v>
   <v>       0.42857143       0.14285714       0.14285714 </v>
   <v>       0.47619048       0.14285714       0.14285714 </v>
   <v>       0.19047619       0.19047619       0.14285714 </v>
   <v>       0.23809524       0.19047619       0.14285714 </v>
   <v>       0.28571429       0.19047619       0.14285714 </v>
   <v>       0.33333333       0.19047619       0.14285714 </v>
   <v>       0.38095238       0.19047619       0.14285714 </v>
   <v>       0.42857143       0.19047619       0.14285714 </v>
   <v>       0.47619048       0.19047619       0.14285714 </v>
   <v>       0.23809524       0.23809524       0.14285714 </v>
   <v>       0.28571429       0.23809524       0.14285714 </v>
   <v>       0.33333333       0.23809524       0.14285714 </v>
   <v>       0.38095238       0.23809524       0.14285714 </v>
   <v>       0.42857143       0.23809524       0.14285714 </v>
   <v>       0.47619048       0.23809524       0.14285714 </v>
   <v>       0.28571429       0.28571429       0.14285714 </v>
   <v>       0.33333333       0.28571429       0.14285714 </v>
   <v>       0.38095238       0.28571429       0.14285714 </v>
   <v>       0.42857143       0.28571429       0.14285714 </v>
   <v>       0.47619048       0.28571429       0.14285714 </v>
   <v>       0.33333333       0.33333333       0.14285714 </v>
   <v>       0.38095238       0.33333333       0.14285714 </v>
   <v>       0.42857143       0.33333333       0.14285714 </v>
   <v>       0.47619048       0.33333333       0.14285714 </v>
   <v>       0.38095238       0.38095238       0.14285714 </v>
   <v>       0.42857143       0.38095238       0.14285714 </v>
   <v>       0.47619048       0.38095238       0.14285714 </v>
   <v>       0.42857143       0.42857143       0.14285714 </v>
   <v>       0.47619048       0.42857143       0.14285714 </v>
   <v>       0.47619048       0.47619048       0.14285714 </v>
   <v>       0.19047619       0.19047619       0.19047619 </v>
   <v>       0.23809524       0.19047619       0.19047619 </v>
   <v>       0.28571429       0.19047619       0.19047619 </v>
   <v>       0.33333333       0.19047619       0.19047619 </v>
   <v>       0.38095238       0.19047619       0.19047619 </v>
   <v>       0.42857143       0.19047619       0.19047619 </v>
   <v>       0.47619048       0.19047619       0.19047619 </v>
   <v>       0.23809524       0.23809524       0.19047619 </v>
   <v>       0.28571429       0.23809524       0.19047619 </v>
   <v>       0.33333333       0.23809524       0.19047619 </v>
   <v>       0.38095238       0.23809524       0.19047619 </v>
   <v>       0.42857143       0.23809524       0.19047619 </v>
   <v>       0.47619048       0.23809524       0.19047619 </v>
   <v>       0.28571429       0.28571429       0.19047619 </v>
   <v>       0.33333333       0.28571429       0.19047619 </v>
   <v>       0.38095238       0.28571429       0.19047619 </v>
   <v>       0.42857143       0.28571429       0.19047619 </v>
   <v>       0.47619048       0.28571429       0.19047619 </v>
   <v>       0.33333333       0.33333333       0.19047619 </v>
   <v>       0.38095238       0.33333333       0.19047619 </v>
   <v>       0.42857143       0.33333333       0.19047619 </v>
   <v>       0.47619048       0.33333333       0.19047619 </v>
   <v>       0.38095238       0.38095238       0.19047619 </v>
   <v>       0.42857143       0.38095238       0.19047619 </v>
   <v>       0.47619048       0.38095238       0.19047619 </v>
   <v>       0.42857143       0.42857143       0.19047619 </v>
   <v>       0.47619048       0.42857143       0.19047619 </v>
   <v>       0.47619048       0.47619048       0.19047619 </v>
   <v>       0.23809524       0.23809524       0.23809524 </v>
   <v>       0.28571429       0.23809524       0.23809524 </v>
   <v>       0.33333333       0.23809524       0.23809524 </v>
   <v>       0.38095238       0.23809524       0.23809524 </v>
   <v>       0.42857143       0.23809524       0.23809524 </v>
   <v>       0.47619048       0.23809524       0.23809524 </v>
   <v>       0.28571429       0.28571429       0.23809524 </v>
   <v>       0.33333333       0.28571429       0.23809524 </v>
   <v>       0.38095238       0.28571429       0.23809524 </v>
   <v>       0.42857143       0.28571429       0.23809524 </v>
   <v>       0.47619048       0.28571429       0.23809524 </v>
   <v>       0.33333333       0.33333333       0.23809524 </v>
   <v>       0.38095238       0.33333333       0.23809524 </v>
   <v>       0.42857143       0.33333333       0.23809524 </v>
   <v>       0.47619048       0.33333333       0.23809524 </v>
   <v>       0.38095238       0.38095238       0.23809524 </v>
   <v>       0.42857143       0.38095238       0.23809524 </v>
   <v>       0.47619048       0.38095238       0.23809524 </v>
   <v>       0.42857143       0.42857143       0.23809524 </v>
   <v>       0.47619048       0.42857143       0.23809524 </v>
   <v>       0.47619048       0.47619048       0.23809524 </v>
   <v>       0.28571429       0.28571429       0.28571429 </v>
   <v>       0.33333333       0.28571429       0.28571429 </v>
   <v>       0.38095238       0.28571429       0.28571429 </v>
   <v>       0.42857143       0.28571429       0.28571429 </v>
   <v>       0.47619048       0.28571429       0.28571429 </v>
   <v>       0.33333333       0.33333333       0.28571429 </v>
   <v>       0.38095238       0.33333333       0.28571429 </v>
   <v>       0.42857143       0.33333333       0.28571429 </v>
   <v>       0.47619048       0.33333333       0.28571429 </v>
   <v>       0.38095238       0.38095238       0.28571429 </v>
   <v>       0.42857143       0.38095238       0.28571429 </v>
   <v>       0.47619048       0.38095238       0.28571429 </v>
   <v>       0.42857143       0.42857143       0.28571429 </v>
   <v>       0.47619048       0.42857143       0.28571429 </v>
   <v>       0.47619048       0.47619048       0.28571429 </v>
   <v>       0.33333333       0.33333333       0.33333333 </v>
   <v>       0.38095238       0.33333333       0.33333333 </v>
   <v>       0.42857143       0.33333333       0.33333333 </v>
   <v>       0.47619048       0.33333333       0.33333333 </v>
   <v>       0.38095238       0.38095238       0.33333333 </v>
   <v>       0.42857143       0.38095238       0.33333333 </v>
   <v>       0.47619048       0.38095238       0.33333333 </v>
   <v>       0.42857143       0.42857143       0.33333333 </v>
   <v>       0.47619048       0.42857143       0.33333333 </v>
   <v>       0.47619048       0.47619048       0.33333333 </v>
   <v>       0.38095238       0.38095238       0.38095238 </v>
   <v>       0.42857143       0.38095238       0.38095238 </v>
   <v>       0.47619048       0.38095238       0.38095238 </v>
   <v>       0.42857143       0.42857143       0.38095238 </v>
   <v>       0.47619048       0.42857143       0.38095238 </v>
   <v>       0.47619048       0.47619048       0.38095238 </v>
   <v>       0.42857143       0.42857143       0.42857143 </v>
   <v>       0.47619048       0.42857143       0.42857143 </v>
   <v>       0.47619048       0.47619048       0.42857143 </v>
   <v>       0.47619048       0.47619048       0.47619048 </v>
  </varray>
  <varray name="weights" >
   <v>       0.00010798 </v>
   <v>       0.00064788 </v>
   <v>       0.00064788 </v>
   <v>       0.00064788 </v>
   <v>       0.00064788 </v>
   <v>       0.00064788 </v>
   <v>       0.00064788 </v>
   <v>       0.00064788 </v>
   <v>       0.00064788 </v>
   <v>       0.00064788 </v>
   <v>       0.00064788 </v>
   <v>       0.00129576 </v>
   <v>       0.00259151 </v>
   <v>       0.00259151 </v>
   <v>       0.00259151 </v>
   <v>       0.00259151 </v>
   <v>       0.00259151 </v>
   <v>       0.00259151 </v>
   <v>       0.00259151 </v>
   <v>       0.00259151 </v>
   <v>       0.00259151 </v>
   <v>       0.00129576 </v>
   <v>       0.00259151 </v>
   <v>       0.00259151 </v>
   <v>       0.00259151 </v>
   <v>       0.00259151 </v>
   <v>       0.00259151 </v>
   <v>       0.00259151 </v>
   <v>       0.00259151 </v>
   <v>       0.00259151 </v>
   <v>       0.00129576 </v>
   <v>       0.00259151 </v>
   <v>       0.00259151 </v>
   <v>       0.00259151 </v>
   <v>       0.00259151 </v>
   <v>       0.00259151 </v>
   <v>       0.00259151 </v>
   <v>       0.00259151 </v>
   <v>       0.00129576 </v>
   <v>       0.00259151 </v>
   <v>       0.00259151 </v>
   <v>       0.00259151 </v>
   <v>       0.00259151 </v>
   <v>       0.00259151 </v>
   <v>       0.00259151 </v>
   <v>       0.00129576 </v>
   <v>       0.00259151 </v>
   <v>       0.00259151 </v>
   <v>       0.00259151 </v>
   <v>       0.00259151 </v>
   <v>       0.00259151 </v>
   <v>       0.00129576 </v>
   <v>       0.00259151 </v>
   <v>       0.00259151 </v>
   <v>       0.00259151 </v>
   <v>       0.00259151 </v>
   <v>       0.00129576 </v>
   <v>       0.00259151 </v>
   <v>       0.00259151 </v>
   <v>       0.00259151 </v>
   <v>       0.00129576 </v>
   <v>       0.00259151 </v>
   <v>       0.00259151 </v>
   <v>       0.00129576 </v>
   <v>       0.00259151 </v>
   <v>       0.00129576 </v>
   <v>       0.00086384 </v>
   <v>       0.00259151 </v>
   <v>       0.00259151 </v>
   <v>       0.00259151 </v>
   <v>       0.00259151 </v>
   <v>       0.00259151 </v>
   <v>       0.00259151 </v>
   <v>       0.00259151 </v>
   <v>       0.00259151 </v>
   <v>       0.00259151 </v>
   <v>       0.00259151 </v>
   <v>       0.00518303 </v>
   <v>       0.00518303 </v>
   <v>       0.00518303 </v>
   <v>       0.00518303 </v>
   <v>       0.00518303 </v>
   <v>       0.00518303 </v>
   <v>       0.00518303 </v>
   <v>       0.00518303 </v>
   <v>       0.00259151 </v>
   <v>       0.00518303 </v>
   <v>       0.00518303 </v>
   <v>       0.00518303 </v>
   <v>       0.00518303 </v>
   <v>       0.00518303 </v>
   <v>       0.00518303 </v>
   <v>       0.00518303 </v>
   <v>       0.00259151 </v>
   <v>       0.00518303 </v>
   <v>       0.00518303 </v>
   <v>       0.00518303 </v>
   <v>       0.00518303 </v>
   <v>       0.00518303 </v>
   <v>       0.00518303 </v>
   <v>       0.00259151 </v>
   <v>       0.00518303 </v>
   <v>       0.00518303 </v>
   <v>       0.00518303 </v>
   <v>       0.00518303 </v>
   <v>       0.00518303 </v>
   <v>       0.00259151 </v>
   <v>       0.00518303 </v>
   <v>       0.00518303 </v>
   <v>       0.00518303 </v>
   <v>       0.00518303 </v>
   <v>       0.00259151 </v>
   <v>       0.00518303 </v>
   <v>       0.00518303 </v>
   <v>       0.00518303 </v>
   <v>       0.00259151 </v>
   <v>       0.00518303 </v>
   <v>       0.00518303 </v>
   <v>       0.00259151 </v>
   <v>       0.00518303 </v>
   <v>       0.00259151 </v>
   <v>       0.00086384 </v>
   <v>       0.00259151 </v>
   <v>       0.00259151 </v>
   <v>       0.00259151 </v>
   <v>       0.00259151 </v>
   <v>       0.00259151 </v>
   <v>       0.00259151 </v>
   <v>       0.00259151 </v>
   <v>       0.00259151 </v>
   <v>       0.00259151 </v>
   <v>       0.00518303 </v>
   <v>       0.00518303 </v>
   <v>       0.00518303 </v>
   <v>       0.00518303 </v>
   <v>       0.00518303 </v>
   <v>       0.00518303 </v>
   <v>       0.00518303 </v>
   <v>       0.00259151 </v>
   <v>       0.00518303 </v>
   <v>       0.00518303 </v>
   <v>       0.00518303 </v>
   <v>       0.00518303 </v>
   <v>       0.00518303 </v>
   <v>       0.00518303 </v>
   <v>       0.00259151 </v>
   <v>       0.00518303 </v>
   <v>       0.00518303 </v>
   <v>       0.00518303 </v>
   <v>       0.00518303 </v>
   <v>       0.00518303 </v>
   <v>       0.00259151 </v>
   <v>       0.00518303 </v>
   <v>       0.00518303 </v>
   <v>       0.00518303 </v>
   <v>       0.00518303 </v>
   <v>       0.00259151 </v>
   <v>       0.00518303 </v>
   <v>       0.00518303 </v>
   <v>       0.00518303 </v>
   <v>       0.00259151 </v>
   <v>       0.00518303 </v>
   <v>       0.00518303 </v>
   <v>       0.00259151 </v>
   <v>       0.00518303 </v>
   <v>       0.00259151 </v>
   <v>       0.00086384 </v>
   <v>       0.00259151 </v>
   <v>       0.00259151 </v>
   <v>       0.00259151 </v>
   <v>       0.00259151 </v>
   <v>       0.00259151 </v>
   <v>       0.00259151 </v>
   <v>       0.00259151 </v>
   <v>       0.00259151 </v>
   <v>       0.00518303 </v>
   <v>       0.00518303 </v>
   <v>       0.00518303 </v>
   <v>       0.00518303 </v>
   <v>       0.00518303 </v>
   <v>       0.00518303 </v>
   <v>       0.00259151 </v>
   <v>       0.00518303 </v>
   <v>       0.00518303 </v>
   <v>       0.00518303 </v>
   <v>       0.00518303 </v>
   <v>       0.00518303 </v>
   <v>       0.00259151 </v>
   <v>       0.00518303 </v>
   <v>       0.00518303 </v>
   <v>       0.00518303 </v>
   <v>       0.00518303 </v>
   <v>       0.00259151 </v>
   <v>       0.00518303 </v>
   <v>       0.00518303 </v>
   <v>       0.00518303 </v>
   <v>       0.00259151 </v>
   <v>       0.00518303 </v>
   <v>       0.00518303 </v>
   <v>       0.00259151 </v>
   <v>       0.00518303 </v>
   <v>       0.00259151 </v>
   <v>       0.00086384 </v>
   <v>       0.00259151 </v>
   <v>       0.00259151 </v>
   <v>       0.00259151 </v>
   <v>       0.00259151 </v>
   <v>       0.00259151 </v>
   <v>       0.00259151 </v>
   <v>       0.00259151 </v>
   <v>       0.00518303 </v>
   <v>       0.00518303 </v>
   <v>       0.00518303 </v>
   <v>       0.00518303 </v>
   <v>       0.00518303 </v>
   <v>       0.00259151 </v>
   <v>       0.00518303 </v>
   <v>       0.00518303 </v>
   <v>       0.00518303 </v>
   <v>       0.00518303 </v>
   <v>       0.00259151 </v>
   <v>       0.00518303 </v>
   <v>       0.00518303 </v>
   <v>       0.00518303 </v>
   <v>       0.00259151 </v>
   <v>       0.00518303 </v>
   <v>       0.00518303 </v>
   <v>       0.00259151 </v>
   <v>       0.00518303 </v>
   <v>       0.00259151 </v>
   <v>       0.00086384 </v>
   <v>       0.00259151 </v>
   <v>       0.00259151 </v>
   <v>       0.00259151 </v>
   <v>       0.00259151 </v>
   <v>       0.00259151 </v>
   <v>       0.00259151 </v>
   <v>       0.00518303 </v>
   <v>       0.00518303 </v>
   <v>       0.00518303 </v>
   <v>       0.00518303 </v>
   <v>       0.00259151 </v>
   <v>       0.00518303 </v>
   <v>       0.00518303 </v>
   <v>       0.00518303 </v>
   <v>       0.00259151 </v>
   <v>       0.00518303 </v>
   <v>       0.00518303 </v>
   <v>       0.00259151 </v>
   <v>       0.00518303 </v>
   <v>       0.00259151 </v>
   <v>       0.00086384 </v>
   <v>       0.00259151 </v>
   <v>       0.00259151 </v>
   <v>       0.00259151 </v>
   <v>       0.00259151 </v>
   <v>       0.00259151 </v>
   <v>       0.00518303 </v>
   <v>       0.00518303 </v>
   <v>       0.00518303 </v>
   <v>       0.00259151 </v>
   <v>       0.00518303 </v>
   <v>       0.00518303 </v>
   <v>       0.00259151 </v>
   <v>       0.00518303 </v>
   <v>       0.00259151 </v>
   <v>       0.00086384 </v>
   <v>       0.00259151 </v>
   <v>       0.00259151 </v>
   <v>       0.00259151 </v>
   <v>       0.00259151 </v>
   <v>       0.00518303 </v>
   <v>       0.00518303 </v>
   <v>       0.00259151 </v>
   <v>       0.00518303 </v>
   <v>       0.00259151 </v>
   <v>       0.00086384 </v>
   <v>       0.00259151 </v>
   <v>       0.00259151 </v>
   <v>       0.00259151 </v>
   <v>       0.00518303 </v>
   <v>       0.00259151 </v>
   <v>       0.00086384 </v>
   <v>       0.00259151 </v>
   <v>       0.00259151 </v>
   <v>       0.00086384 </v>
  </varray>
 </kpoints>
 <parameters>
  <separator name="general" >
   <i type="string" name="SYSTEM">Al fcc relaxation</i>
   <i type="logical" name="LCOMPAT"> F  </i>
  </separator>
  <separator name="electronic" >
   <i type="string" name="PREC">accura</i>
   <i name="ENMAX">    400.00000000</i>
   <i name="ENAUG">    291.05200000</i>
   <i name="EDIFF">      0.00000100</i>
   <i type="int" name="IALGO">    68</i>
   <i type="int" name="IWAVPR">    11</i>
   <i type="int" name="NBANDS">    14</i>
   <i type="int" name="NBANDSLOW">    -1</i>
   <i type="int" name="NBANDSHIGH">    -1</i>
   <i name="NELECT">     12.00000000</i>
   <i type="int" name="TURBO">     0</i>
   <i type="int" name="IRESTART">     0</i>
   <i type="int" name="NREBOOT">     0</i>
   <i type="int" name="NMIN">     0</i>
   <i name="EREF">      0.00000000</i>
   <separator name="electronic smearing" >
    <i type="int" name="ISMEAR">     1</i>
    <i name="SIGMA">      0.20000000</i>
    <i name="KSPACING">      0.08000000</i>
    <i type="logical" name="KGAMMA"> T  </i>
    <i type="logical" name="KBLOWUP"> T  </i>
   </separator>
   <separator name="electronic projectors" >
    <i type="logical" name="LREAL"> T  </i>
    <v name="ROPT">     -0.00025000</v>
    <i type="int" name="LMAXPAW">  -100</i>
    <i type="int" name="LMAXMIX">     2</i>
    <i type="logical" name="NLSPLINE"> F  </i>
   </separator>
   <separator name="electronic startup" >
    <i type="int" name="ISTART">     0</i>
    <i type="int" name="ICHARG">     2</i>
    <i type="int" name="INIWAV">     1</i>
   </separator>
   <separator name="electronic spin" >
    <i type="int" name="ISPIN">     1</i>
    <i type="logical" name="LNONCOLLINEAR"> F  </i>
    <v name="MAGMOM">      1.00000000      1.00000000      1.00000000      1.00000000</v>
    <i name="NUPDOWN">     -1.00000000</i>
    <i type="logical" name="LSORBIT"> F  </i>
    <v name="SAXIS">      0.00000000      0.00000000      1.00000000</v>
    <i type="logical" name="LSPIRAL"> F  </i>
    <v name="QSPIRAL">      0.00000000      0.00000000      0.00000000</v>
    <i type="logical" name="LZEROZ"> F  </i>
   </separator>
   <separator name="electronic exchange-correlation" >
    <i type="logical" name="LASPH"> F  </i>
    <i type="logical" name="LMETAGGA"> F  </i>
   </separator>
   <separator name="electronic convergence" >
    <i type="int" name="NELM">    60</i>
    <i type="int" name="NELMDL">    -5</i>
    <i type="int" name="NELMIN">     4</i>
    <i name="ENINI">    400.00000000</i>
    <separator name="electronic convergence detail" >
     <i type="logical" name="LDIAG"> T  </i>
     <i type="logical" name="LSUBROT"> F  </i>
     <i name="WEIMIN">      0.00100000</i>
     <i name="EBREAK">      0.00000002</i>
     <i name="DEPER">      0.30000000</i>
     <i type="int" name="NRMM">     4</i>
     <i name="TIME">      0.40000000</i>
    </separator>
   </separator>
   <separator name="electronic mixer" >
    <i name="AMIX">      0.40000000</i>
    <i name="BMIX">      1.00000000</i>
    <i name="AMIN">      0.10000000</i>
    <i name="AMIX_MAG">      1.60000000</i>
    <i name="BMIX_MAG">      1.00000000</i>
    <separator name="electronic mixer details" >
     <i type="int" name="IMIX">     4</i>
     <i type="logical" name="MIXFIRST"> F  </i>
     <i type="int" name="MAXMIX">   -45</i>
     <i name="WC">    100.00000000</i>
     <i type="int" name="INIMIX">     1</i>
     <i type="int" name="MIXPRE">     1</i>
     <i type="int" name="MREMOVE">     5</i>
    </separator>
   </separator>
   <separator name="electronic dipolcorrection" >
    <i type="logical" name="LDIPOL"> F  </i>
    <i type="logical" name="LMONO"> F  </i>
    <i type="int" name="IDIPOL">     0</i>
    <i name="EPSILON">      1.00000000</i>
    <v name="DIPOL">   -100.00000000   -100.00000000   -100.00000000</v>
    <i name="EFIELD">      0.00000000</i>
   </separator>
  </separator>
  <separator name="grids" >
   <i type="int" name="NGX">    28</i>
   <i type="int" name="NGY">    28</i>
   <i type="int" name="NGZ">    28</i>
   <i type="int" name="NGXF">    56</i>
   <i type="int" name="NGYF">    56</i>
   <i type="int" name="NGZF">    56</i>
   <i type="logical" name="ADDGRID"> F  </i>
  </separator>
  <separator name="ionic" >
   <i type="int" name="NSW">   100</i>
   <i type="int" name="IBRION">     2</i>
   <i type="int" name="MDALGO">     0</i>
   <i type="int" name="ISIF">     4</i>
   <i name="PSTRESS">      0.00000000</i>
   <i name="EDIFFG">      0.00001000</i>
   <i type="int" name="NFREE">     1</i>
   <i name="POTIM">      0.50000000</i>
   <i name="SMASS">     -3.00000000</i>
   <i name="SCALEE">      1.00000000</i>
  </separator>
  <separator name="ionic md" >
   <i name="TEBEG">      0.00010000</i>
   <i name="TEEND">      0.00010000</i>
   <i type="int" name="NBLOCK">     1</i>
   <i type="int" name="KBLOCK">   100</i>
   <i type="int" name="NPACO">   256</i>
   <i name="APACO">     10.00000000</i>
  </separator>
  <separator name="symmetry" >
   <i type="int" name="ISYM">     2</i>
   <i name="SYMPREC">      0.00001000</i>
  </separator>
  <separator name="dos" >
   <i type="int" name="LORBIT">     0</i>
   <v name="RWIGS">     -1.00000000</v>
   <i type="int" name="NEDOS">   301</i>
   <i name="EMIN">     10.00000000</i>
   <i name="EMAX">    -10.00000000</i>
   <i name="EFERMI">      0.00000000</i>
  </separator>
  <separator name="writing" >
   <i type="int" name="NWRITE">     2</i>
   <i type="logical" name="LWAVE"> F  </i>
   <i type="logical" name="LDOWNSAMPLE"> F  </i>
   <i type="logical" name="LCHARG"> F  </i>
   <i type="logical" name="LPARD"> F  </i>
   <i type="logical" name="LVTOT"> F  </i>
   <i type="logical" name="LVHAR"> F  </i>
   <i type="logical" name="LELF"> F  </i>
   <i type="logical" name="LOPTICS"> F  </i>
   <v name="STM">      0.00000000      0.00000000      0.00000000      0.00000000      0.00000000      0.00000000      0.00000000</v>
  </separator>
  <separator name="performance" >
   <i type="int" name="NPAR">    14</i>
   <i type="int" name="NSIM">     4</i>
   <i type="int" name="NBLK">    -1</i>
   <i type="logical" name="LPLANE"> T  </i>
   <i type="logical" name="LSCALAPACK"> T  </i>
   <i type="logical" name="LSCAAWARE"> F  </i>
   <i type="logical" name="LSCALU"> F  </i>
   <i type="logical" name="LASYNC"> F  </i>
   <i type="logical" name="LORBITALREAL"> F  </i>
  </separator>
  <separator name="miscellaneous" >
   <i type="int" name="IDIOT">     3</i>
   <i type="int" name="PHON_NSTRUCT">    -1</i>
   <i type="logical" name="LMUSIC"> F  </i>
   <v name="POMASS">     26.98100000</v>
   <v name="DARWINR">      0.00000000</v>
   <v name="DARWINV">      1.00000000</v>
   <i type="logical" name="LCORR"> T  </i>
  </separator>
  <i type="logical" name="GGA_COMPAT"> T  </i>
  <i type="logical" name="LBERRY"> F  </i>
  <i type="int" name="ICORELEVEL">     0</i>
  <i type="logical" name="LDAU"> F  </i>
  <i type="int" name="I_CONSTRAINED_M">     0</i>
  <separator name="electronic exchange-correlation" >
   <i type="string" name="GGA">--</i>
   <i type="int" name="VOSKOWN">     0</i>
   <i type="logical" name="LHFCALC"> F  </i>
   <i type="string" name="PRECFOCK"></i>
   <i type="logical" name="LSYMGRAD"> F  </i>
   <i type="logical" name="LHFONE"> F  </i>
   <i type="logical" name="LRHFCALC"> F  </i>
   <i type="logical" name="LTHOMAS"> F  </i>
   <i type="logical" name="LMODELHF"> F  </i>
   <i type="logical" name="LFOCKACE"> F  </i>
   <i name="ENCUT4O">     -1.00000000</i>
   <i type="int" name="EXXOEP">     0</i>
   <i type="int" name="FOURORBIT">     0</i>
   <i name="AEXX">      0.00000000</i>
   <i name="HFALPHA">      0.00000000</i>
   <i name="MCALPHA">      0.00000000</i>
   <i name="ALDAX">      1.00000000</i>
   <i name="AGGAX">      1.00000000</i>
   <i name="ALDAC">      1.00000000</i>
   <i name="AGGAC">      1.00000000</i>
   <i type="int" name="NKREDX">     1</i>
   <i type="int" name="NKREDY">     1</i>
   <i type="int" name="NKREDZ">     1</i>
   <i type="logical" name="SHIFTRED"> F  </i>
   <i type="logical" name="ODDONLY"> F  </i>
   <i type="logical" name="EVENONLY"> F  </i>
   <i type="int" name="LMAXFOCK">     0</i>
   <i type="int" name="NMAXFOCKAE">     0</i>
   <i type="logical" name="LFOCKAEDFT"> F  </i>
   <i name="HFSCREEN">      0.00000000</i>
   <i name="HFSCREENC">      0.00000000</i>
   <i type="int" name="NBANDSGWLOW">     0</i>
  </separator>
  <separator name="vdW DFT" >
   <i type="logical" name="LUSE_VDW"> F  </i>
   <i type="int" name="IVDW_NL">     1</i>
   <i type="logical" name="LSPIN_VDW"> F  </i>
   <i name="Zab_VDW">     -0.84910000</i>
   <i name="PARAM1">      0.12340000</i>
   <i name="PARAM2">      1.00000000</i>
   <i name="PARAM3">      0.00000000</i>
  </separator>
  <separator name="model GW" >
   <i type="int" name="MODEL_GW">     0</i>
   <i name="MODEL_EPS0">      8.40057599</i>
   <i name="MODEL_ALPHA">      1.00000000</i>
  </separator>
  <separator name="linear response parameters" >
   <i type="logical" name="LEPSILON"> F  </i>
   <i type="logical" name="LRPA"> F  </i>
   <i type="logical" name="LNABLA"> F  </i>
   <i type="logical" name="LVEL"> F  </i>
   <i name="CSHIFT">      0.10000000</i>
   <i name="OMEGAMAX">     -1.00000000</i>
   <i name="DEG_THRESHOLD">      0.00200000</i>
   <i name="RTIME">     -0.10000000</i>
   <i name="WPLASMAI">      0.00000000</i>
   <v name="DFIELD">      0.00000000      0.00000000      0.00000000</v>
   <v name="WPLASMA">      0.00000000      0.00000000      0.00000000      0.00000000      0.00000000      0.00000000      0.00000000      0.00000000      0.00000000</v>
  </separator>
  <separator name="orbital magnetization" >
   <i type="logical" name="NUCIND"> F  </i>
   <v name="MAGPOS">      0.00000000      0.00000000      0.00000000</v>
   <i type="logical" name="LNICSALL"> T  </i>
   <i type="logical" name="ORBITALMAG"> F  </i>
   <i type="logical" name="LMAGBLOCH"> F  </i>
   <i type="logical" name="LCHIMAG"> F  </i>
   <i type="logical" name="LGAUGE"> T  </i>
   <i type="int" name="MAGATOM">     0</i>
   <v name="MAGDIPOL">      0.00000000      0.00000000      0.00000000</v>
   <v name="AVECCONST">      0.00000000      0.00000000      0.00000000</v>
  </separator>
  <separator name="response functions" >
   <i type="logical" name="LALL_IN_ONE"> F  </i>
   <i type="int" name="IALL_IN_ONE">    -1</i>
   <i type="int" name="NBANDS_WAVE">    -1</i>
   <i type="logical" name="LFINITE_TEMPERATURE"> F  </i>
   <i type="logical" name="LADDER"> F  </i>
   <i type="logical" name="LRPAFORCE"> F  </i>
   <i type="logical" name="LFXC"> F  </i>
   <i type="logical" name="LHARTREE"> T  </i>
   <i type="int" name="IBSE">     0</i>
   <v type="int" name="KPOINT">    -1     0     0     0</v>
   <i type="logical" name="LTCTC"> F  </i>
   <i type="logical" name="LTCTE"> F  </i>
   <i type="logical" name="LTETE"> F  </i>
   <i type="logical" name="LTRIPLET"> F  </i>
   <i type="logical" name="LFXCEPS"> F  </i>
   <i type="logical" name="LFXHEG"> F  </i>
   <i type="int" name="NATURALO">     2</i>
   <i type="logical" name="LHOLEGF"> F  </i>
   <i type="logical" name="L2ORDER"> F  </i>
   <i type="logical" name="LDMP1"> F  </i>
   <i type="logical" name="LMP2LT"> F  </i>
   <i type="logical" name="LSMP2LT"> F  </i>
   <i type="logical" name="LGWLF"> F  </i>
   <i name="ENCUTGW">     -1.60000002</i>
   <i name="ENCUTGWSOFT">     -1.60000002</i>
   <i name="ENCUTLF">     -1.00000000</i>
   <i type="logical" name="LESF_SPLINES"> F  </i>
   <i type="int" name="LMAXMP2">    -1</i>
   <i name="SCISSOR">      0.00000000</i>
   <i type="int" name="NOMEGA">     0</i>
   <i type="int" name="NOMEGAR">     0</i>
   <i type="int" name="NBANDSGW">    -1</i>
   <i type="int" name="NBANDSO">    -1</i>
   <i type="int" name="NBANDSV">    -1</i>
   <i type="int" name="NELMGW">     1</i>
   <i type="int" name="NELMHF">     1</i>
   <i type="int" name="DIM">     3</i>
   <i type="int" name="IESPILON">     4</i>
   <i type="int" name="ANTIRES">     0</i>
   <i name="OMEGAMAX">    -30.00000000</i>
   <i name="OMEGAMIN">    -30.00000000</i>
   <i name="OMEGATL">   -200.00000000</i>
   <i type="int" name="OMEGAGRID">     0</i>
   <i name="CSHIFT">     -0.10000000</i>
   <i type="logical" name="LSELFENERGY"> F  </i>
   <i type="logical" name="LSPECTRAL"> F  </i>
   <i type="logical" name="LSPECTRALGW"> F  </i>
   <i type="logical" name="LSINGLES"> F  </i>
   <i type="logical" name="LFERMIGW"> F  </i>
   <i type="logical" name="ODDONLYGW"> F  </i>
   <i type="logical" name="EVENONLYGW"> F  </i>
   <i type="int" name="NKREDLFX">     1</i>
   <i type="int" name="NKREDLFY">     1</i>
   <i type="int" name="NKREDLFZ">     1</i>
   <i type="int" name="MAXMEM">  2800</i>
   <i type="int" name="TELESCOPE">     0</i>
   <i type="int" name="NTAUPAR">    -1</i>
   <i type="int" name="NOMEGAPAR">    -1</i>
   <i name="DAMP_NEWTON">      0.80000001</i>
   <i name="LAMBDA">      1.00000000</i>
  </separator>
  <separator name="External order field" >
   <i name="OFIELD_KAPPA">      0.00000000</i>
   <v name="OFIELD_K">      0.00000000      0.00000000      0.00000000</v>
   <i name="OFIELD_Q6_NEAR">      0.00000000</i>
   <i name="OFIELD_Q6_FAR">      0.00000000</i>
   <i name="OFIELD_A">      0.00000000</i>
  </separator>
  <separator name="optional k-points parameters" >
   <i type="int" name="KPOINTS_OPT_MODE">     1</i>
   <i type="logical" name="LKPOINTS_OPT"> F  </i>
  </separator>
 </parameters>
 <atominfo>
  <atoms>       4 </atoms>
  <types>       1 </types>
  <array name="atoms" >
   <dimension dim="1">ion</dimension>
   <field type="string">element</field>
   <field type="int">atomtype</field>
   <set>
    <rc><c>Al</c><c>   1</c></rc>
    <rc><c>Al</c><c>   1</c></rc>
    <rc><c>Al</c><c>   1</c></rc>
    <rc><c>Al</c><c>   1</c></rc>
   </set>
  </array>
  <array name="atomtypes" >
   <dimension dim="1">type</dimension>
   <field type="int">atomspertype</field>
   <field type="string">element</field>
   <field>mass</field>
   <field>valence</field>
   <field type="string">pseudopotential</field>
   <set>
    <rc><c>   4</c><c>Al</c><c>     26.98100000</c><c>      3.00000000</c><c>  PAW_PBE Al 04Jan2001                  </c></rc>
   </set>
  </array>
 </atominfo>
 <structure name="initialpos" >
  <crystal>
   <varray name="basis" >
    <v>       3.82594981       0.00000000       0.00000000 </v>
    <v>      -0.00000000       3.82594981       0.00000000 </v>
    <v>       0.00000000       0.00000000       3.82594981 </v>
   </varray>
   <i name="volume">     56.00383995 </i>
   <varray name="rec_basis" >
    <v>       0.26137301       0.00000000      -0.00000000 </v>
    <v>       0.00000000       0.26137301       0.00000000 </v>
    <v>      -0.00000000      -0.00000000       0.26137301 </v>
   </varray>
  </crystal>
  <varray name="positions" >
   <v>       0.00000000       0.00000000       0.00000000 </v>
   <v>       0.00000000       0.50000000       0.50000000 </v>
   <v>       0.50000000       0.00000000       0.50000000 </v>
   <v>       0.50000000       0.50000000       0.00000000 </v>
  </varray>
 </structure>
 <calculation>
  <scstep>
   <time name="dav">   14.48    7.25</time>
   <time name="total">   14.53    7.28</time>
   <energy>
    <i name="alphaZ">     -0.95959417 </i>
    <i name="ewald">   -310.61011160 </i>
    <i name="hartreedc">     -0.26013284 </i>
    <i name="XCdc">   -103.74300292 </i>
    <i name="pawpsdc">    264.80062850 </i>
    <i name="pawaedc">   -136.98248303 </i>
    <i name="eentropy">      0.00086959 </i>
    <i name="bandstr">     72.44490906 </i>
    <i name="atom">    214.15261729 </i>
    <i name="e_fr_energy">     -1.15630012 </i>
    <i name="e_wo_entrp">     -1.15716971 </i>
    <i name="e_0_energy">     -1.15658998 </i>
   </energy>
  </scstep>
  <scstep>
   <time name="dav">   20.56   10.29</time>
   <time name="total">   20.57   10.29</time>
   <energy>
    <i name="e_fr_energy">    -14.53270800 </i>
    <i name="e_wo_entrp">    -14.53240320 </i>
    <i name="e_0_energy">    -14.53260640 </i>
   </energy>
  </scstep>
  <scstep>
   <time name="dav">   18.33    9.17</time>
   <time name="total">   18.33    9.17</time>
   <energy>
    <i name="e_fr_energy">    -14.60215101 </i>
    <i name="e_wo_entrp">    -14.60206878 </i>
    <i name="e_0_energy">    -14.60212360 </i>
   </energy>
  </scstep>
  <scstep>
   <time name="dav">   24.27   12.15</time>
   <time name="total">   24.28   12.15</time>
   <energy>
    <i name="e_fr_energy">    -14.60230283 </i>
    <i name="e_wo_entrp">    -14.60222070 </i>
    <i name="e_0_energy">    -14.60227545 </i>
   </energy>
  </scstep>
  <scstep>
   <time name="dav">   20.07   10.09</time>
   <time name="total">   20.51   10.31</time>
   <energy>
    <i name="e_fr_energy">    -14.60230288 </i>
    <i name="e_wo_entrp">    -14.60222076 </i>
    <i name="e_0_energy">    -14.60227551 </i>
   </energy>
  </scstep>
  <scstep>
   <time name="diag">    2.36    1.18</time>
   <time name="diis">    4.81    2.56</time>
   <time name="orth">    0.15    0.08</time>
   <time name="total">    7.80    4.06</time>
   <energy>
    <i name="e_fr_energy">    -14.53913072 </i>
    <i name="e_wo_entrp">    -14.53899051 </i>
    <i name="e_0_energy">    -14.53908398 </i>
   </energy>
  </scstep>
  <scstep>
   <time name="diag">    2.41    1.21</time>
   <time name="diis">    4.81    2.56</time>
   <time name="orth">    0.18    0.09</time>
   <time name="total">    7.89    4.10</time>
   <energy>
    <i name="e_fr_energy">    -14.49378222 </i>
    <i name="e_wo_entrp">    -14.49355433 </i>
    <i name="e_0_energy">    -14.49370626 </i>
   </energy>
  </scstep>
  <scstep>
   <time name="diag">    2.23    1.11</time>
   <time name="diis">    4.80    2.55</time>
   <time name="orth">    0.15    0.07</time>
   <time name="total">    7.66    3.98</time>
   <energy>
    <i name="e_fr_energy">    -14.49375328 </i>
    <i name="e_wo_entrp">    -14.49352380 </i>
    <i name="e_0_energy">    -14.49367679 </i>
   </energy>
  </scstep>
  <scstep>
   <time name="diag">    2.57    1.33</time>
   <time name="diis">    4.80    2.54</time>
   <time name="orth">    0.14    0.07</time>
   <time name="total">    8.00    4.18</time>
   <energy>
    <i name="e_fr_energy">    -14.49375845 </i>
    <i name="e_wo_entrp">    -14.49352773 </i>
    <i name="e_0_energy">    -14.49368154 </i>
   </energy>
  </scstep>
  <scstep>
   <time name="diag">    2.22    1.11</time>
   <time name="diis">    4.82    2.56</time>
   <time name="orth">    0.14    0.07</time>
   <time name="total">    7.67    3.98</time>
   <energy>
    <i name="e_fr_energy">    -14.49375627 </i>
    <i name="e_wo_entrp">    -14.49352529 </i>
    <i name="e_0_energy">    -14.49367928 </i>
   </energy>
  </scstep>
  <scstep>
   <time name="diag">    2.67    1.34</time>
   <time name="diis">    4.71    2.51</time>
   <time name="orth">    0.14    0.07</time>
   <time name="total">    7.58    3.95</time>
   <energy>
    <i name="alphaZ">     -0.95959417 </i>
    <i name="ewald">   -310.61011160 </i>
    <i name="hartreedc">     -0.58772193 </i>
    <i name="XCdc">   -103.15845292 </i>
    <i name="pawpsdc">    767.46545012 </i>
    <i name="pawaedc">   -639.83294947 </i>
    <i name="eentropy">     -0.00023087 </i>
    <i name="bandstr">     59.03723678 </i>
    <i name="atom">    214.15261729 </i>
    <i name="e_fr_energy">    -14.49375678 </i>
    <i name="e_wo_entrp">    -14.49352591 </i>
    <i name="e_0_energy">    -14.49367982 </i>
   </energy>
  </scstep>
  <structure>
   <crystal>
    <varray name="basis" >
     <v>       3.82594981       0.00000000       0.00000000 </v>
     <v>      -0.00000000       3.82594981       0.00000000 </v>
     <v>       0.00000000       0.00000000       3.82594981 </v>
    </varray>
    <i name="volume">     56.00383995 </i>
    <varray name="rec_basis" >
     <v>       0.26137301       0.00000000      -0.00000000 </v>
     <v>       0.00000000       0.26137301       0.00000000 </v>
     <v>      -0.00000000      -0.00000000       0.26137301 </v>
    </varray>
   </crystal>
   <varray name="positions" >
    <v>       0.00000000       0.00000000       0.00000000 </v>
    <v>       0.00000000       0.50000000       0.50000000 </v>
    <v>       0.50000000       0.00000000       0.50000000 </v>
    <v>       0.50000000       0.50000000       0.00000000 </v>
   </varray>
  </structure>
  <varray name="forces" >
   <v>       0.00000000       0.00000000       0.00000000 </v>
   <v>      -0.00000000       0.00000000      -0.00000000 </v>
   <v>      -0.00000000      -0.00000000       0.00000000 </v>
   <v>      -0.00000000       0.00000000      -0.00000000 </v>
  </varray>
  <varray name="stress" >
   <v>     183.00944145      -0.00000000       0.00000000 </v>
   <v>      -0.00000000     183.00944145       0.00000000 </v>
   <v>       0.00000000       0.00000000     183.00944145 </v>
  </varray>
  <energy>
   <i name="e_fr_energy">    -14.49375678 </i>
   <i name="e_wo_entrp">    -14.49352591 </i>
   <i name="e_0_energy">    -14.49367982 </i>
  </energy>
  <time name="totalsc">  158.51   80.53</time>
  <eigenvalues>
   <array>
    <dimension dim="1">band</dimension>
    <dimension dim="2">kpoint</dimension>
    <dimension dim="3">spin</dimension>
    <field>eigene</field>
    <field>occ</field>
    <set>
     <set comment="spin 1">
      <set comment="kpoint 1">
       <r>   -2.4937    1.0000 </r>
       <r>    6.5050    1.0000 </r>
       <r>    6.5050    1.0000 </r>
       <r>    6.5050    1.0000 </r>
       <r>    8.1441    1.0000 </r>
       <r>    8.1441    1.0000 </r>
       <r>    8.1441    1.0000 </r>
       <r>   15.1132   -0.0000 </r>
       <r>   15.1132   -0.0000 </r>
       <r>   15.1132   -0.0000 </r>
       <r>   16.2524    0.0000 </r>
       <r>   16.2524    0.0000 </r>
       <r>   16.2524    0.0000 </r>
       <r>   16.2524    0.0000 </r>
      </set>
      <set comment="kpoint 2">
       <r>   -2.4708    1.0000 </r>
       <r>    6.1238    1.0000 </r>
       <r>    6.5255    1.0000 </r>
       <r>    6.5255    1.0000 </r>
       <r>    8.1648    1.0000 </r>
       <r>    8.1648    1.0000 </r>
       <r>    8.5633    1.0000 </r>
       <r>   14.6560   -0.0000 </r>
       <r>   14.6560   -0.0000 </r>
       <r>   15.1359   -0.0000 </r>
       <r>   16.1040    0.0000 </r>
       <r>   16.1040    0.0000 </r>
       <r>   16.2710    0.0000 </r>
       <r>   16.2711    0.0000 </r>
      </set>
      <set comment="kpoint 3">
       <r>   -2.4021    1.0000 </r>
       <r>    5.4172    1.0000 </r>
       <r>    6.5870    1.0000 </r>
       <r>    6.5870    1.0000 </r>
       <r>    8.2267    1.0000 </r>
       <r>    8.2267    1.0000 </r>
       <r>    9.3844    1.0037 </r>
       <r>   13.9187   -0.0000 </r>
       <r>   13.9187   -0.0000 </r>
       <r>   15.2039   -0.0000 </r>
       <r>   15.7184    0.0000 </r>
       <r>   15.7184    0.0000 </r>
       <r>   16.3270    0.0000 </r>
       <r>   16.3270    0.0000 </r>
      </set>
      <set comment="kpoint 4">
       <r>   -2.2877    1.0000 </r>
       <r>    4.6666    1.0000 </r>
       <r>    6.6895    1.0000 </r>
       <r>    6.6895    1.0000 </r>
       <r>    8.3288    1.0000 </r>
       <r>    8.3288    1.0000 </r>
       <r>   10.3252   -0.0012 </r>
       <r>   13.1745   -0.0000 </r>
       <r>   13.1745   -0.0000 </r>
       <r>   15.2020   -0.0000 </r>
       <r>   15.2020   -0.0000 </r>
       <r>   15.3172    0.0000 </r>
       <r>   16.4202    0.0000 </r>
       <r>   16.4202    0.0000 </r>
      </set>
      <set comment="kpoint 5">
       <r>   -2.1277    1.0000 </r>
       <r>    3.9291    1.0000 </r>
       <r>    6.8331    1.0000 </r>
       <r>    6.8331    1.0000 </r>
       <r>    8.4695    1.0000 </r>
       <r>    8.4695    1.0000 </r>
       <r>   11.3287   -0.0000 </r>
       <r>   12.4588   -0.0000 </r>
       <r>   12.4588   -0.0000 </r>
       <r>   14.6323   -0.0000 </r>
       <r>   14.6323   -0.0000 </r>
       <r>   15.4758    0.0000 </r>
       <r>   16.5509    0.0000 </r>
       <r>   16.5509    0.0000 </r>
      </set>
      <set comment="kpoint 6">
       <r>   -1.9223    1.0000 </r>
       <r>    3.2205    1.0000 </r>
       <r>    7.0178    1.0000 </r>
       <r>    7.0178    1.0000 </r>
       <r>    8.6461    1.0000 </r>
       <r>    8.6461    1.0000 </r>
       <r>   11.7798   -0.0000 </r>
       <r>   11.7798   -0.0000 </r>
       <r>   12.3792   -0.0000 </r>
       <r>   14.0538   -0.0000 </r>
       <r>   14.0538   -0.0000 </r>
       <r>   15.6808    0.0000 </r>
       <r>   16.7191    0.0000 </r>
       <r>   16.7191    0.0000 </r>
      </set>
      <set comment="kpoint 7">
       <r>   -1.6717    1.0000 </r>
       <r>    2.5468    1.0000 </r>
       <r>    7.2437    1.0000 </r>
       <r>    7.2437    1.0000 </r>
       <r>    8.8534    1.0000 </r>
       <r>    8.8534    1.0000 </r>
       <r>   11.1401   -0.0000 </r>
       <r>   11.1401   -0.0000 </r>
       <r>   13.4702   -0.0000 </r>
       <r>   13.4935   -0.0000 </r>
       <r>   13.4935   -0.0000 </r>
       <r>   15.9294    0.0000 </r>
       <r>   16.9246    0.0000 </r>
       <r>   16.9246    0.0000 </r>
      </set>
      <set comment="kpoint 8">
       <r>   -1.3763    1.0000 </r>
       <r>    1.9110    1.0000 </r>
       <r>    7.5108    1.0000 </r>
       <r>    7.5108    1.0000 </r>
       <r>    9.0832    1.0000 </r>
       <r>    9.0832    1.0000 </r>
       <r>   10.5413   -0.0000 </r>
       <r>   10.5413   -0.0000 </r>
       <r>   12.9724   -0.0000 </r>
       <r>   12.9724   -0.0000 </r>
       <r>   14.5984   -0.0000 </r>
       <r>   16.2228    0.0000 </r>
       <r>   17.1675    0.0000 </r>
       <r>   17.1675    0.0000 </r>
      </set>
      <set comment="kpoint 9">
       <r>   -1.0364    1.0000 </r>
       <r>    1.3150    1.0000 </r>
       <r>    7.8193    1.0000 </r>
       <r>    7.8193    1.0000 </r>
       <r>    9.3190    1.0009 </r>
       <r>    9.3190    1.0009 </r>
       <r>    9.9839    0.0153 </r>
       <r>    9.9839    0.0153 </r>
       <r>   12.5135   -0.0000 </r>
       <r>   12.5135   -0.0000 </r>
       <r>   15.7611    0.0000 </r>
       <r>   16.5603    0.0000 </r>
       <r>   17.4479    0.0000 </r>
       <r>   17.4479    0.0000 </r>
      </set>
      <set comment="kpoint 10">
       <r>   -0.6523    1.0000 </r>
       <r>    0.7597    1.0000 </r>
       <r>    8.1692    1.0000 </r>
       <r>    8.1692    1.0000 </r>
       <r>    9.4678    1.0144 </r>
       <r>    9.4678    1.0144 </r>
       <r>    9.5305    1.0282 </r>
       <r>    9.5305    1.0282 </r>
       <r>   12.1518   -0.0000 </r>
       <r>   12.1518   -0.0000 </r>
       <r>   16.9422    0.0000 </r>
       <r>   16.9562    0.0000 </r>
       <r>   17.7656    0.0000 </r>
       <r>   17.7663    0.0000 </r>
      </set>
      <set comment="kpoint 11">
       <r>   -0.2246    1.0000 </r>
       <r>    0.2463    1.0000 </r>
       <r>    8.5606    1.0000 </r>
       <r>    8.5606    1.0000 </r>
       <r>    8.9934    1.0000 </r>
       <r>    8.9934    1.0000 </r>
       <r>    9.6641    0.9947 </r>
       <r>    9.6641    0.9947 </r>
       <r>   11.9425   -0.0000 </r>
       <r>   11.9425   -0.0000 </r>
       <r>   17.3679    0.0000 </r>
       <r>   17.8389    0.0000 </r>
       <r>   18.1208    0.0000 </r>
       <r>   18.1747    0.0000 </r>
      </set>
      <set comment="kpoint 12">
       <r>   -2.4479    1.0000 </r>
       <r>    6.1446    1.0000 </r>
       <r>    6.1446    1.0000 </r>
       <r>    6.5460    1.0000 </r>
       <r>    8.1853    1.0000 </r>
       <r>    8.5836    1.0000 </r>
       <r>    8.5836    1.0000 </r>
       <r>   14.2821   -0.0000 </r>
       <r>   14.6778   -0.0000 </r>
       <r>   14.6778   -0.0000 </r>
       <r>   16.1230    0.0000 </r>
       <r>   16.1230    0.0000 </r>
       <r>   16.2901    0.0000 </r>
       <r>   16.7718    0.0000 </r>
      </set>
      <set comment="kpoint 13">
       <r>   -2.3792    1.0000 </r>
       <r>    5.4383    1.0000 </r>
       <r>    6.2069    1.0000 </r>
       <r>    6.6075    1.0000 </r>
       <r>    8.2467    1.0000 </r>
       <r>    8.6444    1.0000 </r>
       <r>    9.4041    1.0053 </r>
       <r>   13.5991   -0.0000 </r>
       <r>   13.9399   -0.0000 </r>
       <r>   14.7430   -0.0000 </r>
       <r>   15.7383    0.0000 </r>
       <r>   16.0247    0.0000 </r>
       <r>   16.1800    0.0000 </r>
       <r>   16.8304    0.0000 </r>
      </set>
      <set comment="kpoint 14">
       <r>   -2.2648    1.0000 </r>
       <r>    4.6879    1.0000 </r>
       <r>    6.3107    1.0000 </r>
       <r>    6.7100    1.0000 </r>
       <r>    8.3478    1.0000 </r>
       <r>    8.7447    1.0000 </r>
       <r>   10.3441   -0.0008 </r>
       <r>   12.8803   -0.0000 </r>
       <r>   13.1957   -0.0000 </r>
       <r>   14.8519   -0.0000 </r>
       <r>   15.2231   -0.0000 </r>
       <r>   15.5171    0.0000 </r>
       <r>   16.2752    0.0000 </r>
       <r>   16.9284    0.0000 </r>
      </set>
      <set comment="kpoint 15">
       <r>   -2.1049    1.0000 </r>
       <r>    3.9507    1.0000 </r>
       <r>    6.4559    1.0000 </r>
       <r>    6.8536    1.0000 </r>
       <r>    8.4865    1.0000 </r>
       <r>    8.8831    1.0000 </r>
       <r>   11.3465   -0.0000 </r>
       <r>   12.1801   -0.0000 </r>
       <r>   12.4797   -0.0000 </r>
       <r>   14.6549   -0.0000 </r>
       <r>   14.9446   -0.0000 </r>
       <r>   15.0040   -0.0000 </r>
       <r>   16.4085    0.0000 </r>
       <r>   17.0658    0.0000 </r>
      </set>
      <set comment="kpoint 16">
       <r>   -1.8995    1.0000 </r>
       <r>    3.2422    1.0000 </r>
       <r>    6.6422    1.0000 </r>
       <r>    7.0384    1.0000 </r>
       <r>    8.6587    1.0000 </r>
       <r>    9.0561    1.0000 </r>
       <r>   11.5149   -0.0000 </r>
       <r>   11.8005   -0.0000 </r>
       <r>   12.3951   -0.0000 </r>
       <r>   14.0785   -0.0000 </r>
       <r>   14.3611   -0.0000 </r>
       <r>   15.1992   -0.0000 </r>
       <r>   16.5803    0.0000 </r>
       <r>   17.2422    0.0000 </r>
      </set>
      <set comment="kpoint 17">
       <r>   -1.6490    1.0000 </r>
       <r>    2.5687    1.0000 </r>
       <r>    6.8696    1.0000 </r>
       <r>    7.2642    1.0000 </r>
       <r>    8.8562    1.0000 </r>
       <r>    9.2589    1.0002 </r>
       <r>   10.8947   -0.0000 </r>
       <r>   11.1610   -0.0000 </r>
       <r>   13.4833   -0.0000 </r>
       <r>   13.5217   -0.0000 </r>
       <r>   13.7938   -0.0000 </r>
       <r>   15.4376    0.0000 </r>
       <r>   16.7911    0.0000 </r>
       <r>   17.4581    0.0000 </r>
      </set>
      <set comment="kpoint 18">
       <r>   -1.3536    1.0000 </r>
       <r>    1.9331    1.0000 </r>
       <r>    7.1376    1.0000 </r>
       <r>    7.5314    1.0000 </r>
       <r>    9.0565    1.0000 </r>
       <r>    9.4817    1.0172 </r>
       <r>   10.3372   -0.0009 </r>
       <r>   10.5621   -0.0000 </r>
       <r>   13.0068   -0.0000 </r>
       <r>   13.2618   -0.0000 </r>
       <r>   14.6062   -0.0000 </r>
       <r>   15.7185    0.0000 </r>
       <r>   17.0422    0.0000 </r>
       <r>   17.7135    0.0000 </r>
      </set>
      <set comment="kpoint 19">
       <r>   -1.0137    1.0000 </r>
       <r>    1.3371    1.0000 </r>
       <r>    7.4455    1.0000 </r>
       <r>    7.8399    1.0000 </r>
       <r>    9.1725    1.0000 </r>
       <r>    9.7060    0.9243 </r>
       <r>    9.9187    0.1561 </r>
       <r>   10.0046   -0.0084 </r>
       <r>   12.5603   -0.0000 </r>
       <r>   12.7846   -0.0000 </r>
       <r>   15.7571    0.0000 </r>
       <r>   16.0415    0.0000 </r>
       <r>   17.3377    0.0000 </r>
       <r>   18.0086    0.0000 </r>
      </set>
      <set comment="kpoint 20">
       <r>   -0.6297    1.0000 </r>
       <r>    0.7820    1.0000 </r>
       <r>    7.7919    1.0000 </r>
       <r>    8.1899    1.0000 </r>
       <r>    8.9761    1.0000 </r>
       <r>    9.4886    1.0187 </r>
       <r>    9.8432    0.4354 </r>
       <r>    9.8949    0.2335 </r>
       <r>   12.2245   -0.0000 </r>
       <r>   12.3904   -0.0000 </r>
       <r>   16.4062    0.0000 </r>
       <r>   16.9112    0.0000 </r>
       <r>   17.7001    0.0000 </r>
       <r>   17.7445    0.0000 </r>
      </set>
      <set comment="kpoint 21">
       <r>   -0.2021    1.0000 </r>
       <r>    0.2687    1.0000 </r>
       <r>    8.1737    1.0000 </r>
       <r>    8.5812    1.0000 </r>
       <r>    8.5816    1.0000 </r>
       <r>    9.0141    1.0000 </r>
       <r>    9.9501    0.0751 </r>
       <r>    9.9893    0.0081 </r>
       <r>   12.0638   -0.0000 </r>
       <r>   12.1280   -0.0000 </r>
       <r>   16.8119    0.0000 </r>
       <r>   17.2584    0.0000 </r>
       <r>   17.8331    0.0000 </r>
       <r>   18.3533    0.0000 </r>
      </set>
      <set comment="kpoint 22">
       <r>   -2.3106    1.0000 </r>
       <r>    5.5016    1.0000 </r>
       <r>    5.5016    1.0000 </r>
       <r>    6.6690    1.0000 </r>
       <r>    8.3064    1.0000 </r>
       <r>    9.4630    1.0135 </r>
       <r>    9.4630    1.0135 </r>
       <r>   12.9653   -0.0000 </r>
       <r>   14.0038   -0.0000 </r>
       <r>   14.0038   -0.0000 </r>
       <r>   15.7980    0.0000 </r>
       <r>   15.7980    0.0000 </r>
       <r>   16.4036    0.0000 </r>
       <r>   17.4678    0.0000 </r>
      </set>
      <set comment="kpoint 23">
       <r>   -2.1963    1.0000 </r>
       <r>    4.7520    1.0000 </r>
       <r>    5.6070    1.0000 </r>
       <r>    6.7716    1.0000 </r>
       <r>    8.4038    1.0000 </r>
       <r>    9.5596    1.0337 </r>
       <r>   10.4003   -0.0002 </r>
       <r>   12.2746   -0.0000 </r>
       <r>   13.2589   -0.0000 </r>
       <r>   14.1102   -0.0000 </r>
       <r>   15.2864   -0.0000 </r>
       <r>   15.8977    0.0000 </r>
       <r>   16.1484    0.0000 </r>
       <r>   17.7978    0.0000 </r>
      </set>
      <set comment="kpoint 24">
       <r>   -2.0364    1.0000 </r>
       <r>    4.0154    1.0000 </r>
       <r>    5.7543    1.0000 </r>
       <r>    6.9152    1.0000 </r>
       <r>    8.5351    1.0000 </r>
       <r>    9.6923    0.9520 </r>
       <r>   11.3989   -0.0000 </r>
       <r>   11.5964   -0.0000 </r>
       <r>   12.5427   -0.0000 </r>
       <r>   14.2590   -0.0000 </r>
       <r>   14.7230   -0.0000 </r>
       <r>   15.6216    0.0000 </r>
       <r>   16.0379    0.0000 </r>
       <r>   17.9378    0.0000 </r>
      </set>
      <set comment="kpoint 25">
       <r>   -1.8311    1.0000 </r>
       <r>    3.3075    1.0000 </r>
       <r>    5.9433    1.0000 </r>
       <r>    7.1000    1.0000 </r>
       <r>    8.6910    1.0000 </r>
       <r>    9.8569    0.3787 </r>
       <r>   10.9585   -0.0000 </r>
       <r>   11.8633   -0.0000 </r>
       <r>   12.4417   -0.0000 </r>
       <r>   14.1536   -0.0000 </r>
       <r>   14.4501   -0.0000 </r>
       <r>   15.0471   -0.0000 </r>
       <r>   16.2198    0.0000 </r>
       <r>   18.1178    0.0000 </r>
      </set>
      <set comment="kpoint 26">
       <r>   -1.5808    1.0000 </r>
       <r>    2.6344    1.0000 </r>
       <r>    6.1736    1.0000 </r>
       <r>    7.3259    1.0000 </r>
       <r>    8.8458    1.0000 </r>
       <r>   10.0460   -0.0322 </r>
       <r>   10.3917   -0.0002 </r>
       <r>   11.2236   -0.0000 </r>
       <r>   13.5198   -0.0000 </r>
       <r>   13.6086   -0.0000 </r>
       <r>   14.4776   -0.0000 </r>
       <r>   14.6835   -0.0000 </r>
       <r>   16.4456    0.0000 </r>
       <r>   18.3389    0.0000 </r>
      </set>
      <set comment="kpoint 27">
       <r>   -1.2856    1.0000 </r>
       <r>    1.9992    1.0000 </r>
       <r>    6.4447    1.0000 </r>
       <r>    7.5932    1.0000 </r>
       <r>    8.9134    1.0000 </r>
       <r>    9.9823    0.0175 </r>
       <r>   10.2446   -0.0060 </r>
       <r>   10.6247   -0.0000 </r>
       <r>   13.1156   -0.0000 </r>
       <r>   13.9351   -0.0000 </r>
       <r>   14.6230   -0.0000 </r>
       <r>   14.9590   -0.0000 </r>
       <r>   16.7223    0.0000 </r>
       <r>   18.0388    0.0000 </r>
      </set>
      <set comment="kpoint 28">
       <r>   -0.9459    1.0000 </r>
       <r>    1.4036    1.0000 </r>
       <r>    6.7558    1.0000 </r>
       <r>    7.9017    1.0000 </r>
       <r>    8.7238    1.0000 </r>
       <r>    9.8942    0.2359 </r>
       <r>   10.0669   -0.0353 </r>
       <r>   10.4213   -0.0001 </r>
       <r>   12.7140   -0.0000 </r>
       <r>   13.4352   -0.0000 </r>
       <r>   15.2766   -0.0000 </r>
       <r>   15.7261    0.0000 </r>
       <r>   17.0727    0.0000 </r>
       <r>   17.4790    0.0000 </r>
      </set>
      <set comment="kpoint 29">
       <r>   -0.5621    1.0000 </r>
       <r>    0.8488    1.0000 </r>
       <r>    7.1054    1.0000 </r>
       <r>    8.2517    1.0000 </r>
       <r>    8.3353    1.0000 </r>
       <r>    9.5507    1.0323 </r>
       <r>   10.0567   -0.0343 </r>
       <r>   10.5167   -0.0000 </r>
       <r>   12.4687   -0.0000 </r>
       <r>   12.9963   -0.0000 </r>
       <r>   15.6359    0.0000 </r>
       <r>   16.7238    0.0000 </r>
       <r>   16.9581    0.0000 </r>
       <r>   17.5993    0.0000 </r>
      </set>
      <set comment="kpoint 30">
       <r>   -0.1347    1.0000 </r>
       <r>    0.3358    1.0000 </r>
       <r>    7.4909    1.0000 </r>
       <r>    7.9062    1.0000 </r>
       <r>    8.6432    1.0000 </r>
       <r>    9.0762    1.0000 </r>
       <r>   10.2840   -0.0029 </r>
       <r>   10.4662   -0.0000 </r>
       <r>   12.4494   -0.0000 </r>
       <r>   12.6489   -0.0000 </r>
       <r>   16.0360    0.0000 </r>
       <r>   16.4768    0.0000 </r>
       <r>   17.4008    0.0000 </r>
       <r>   17.8930    0.0000 </r>
      </set>
      <set comment="kpoint 31">
       <r>   -2.0820    1.0000 </r>
       <r>    4.8587    1.0000 </r>
       <r>    4.8587    1.0000 </r>
       <r>    6.8742    1.0000 </r>
       <r>    8.4931    1.0000 </r>
       <r>   10.4922   -0.0000 </r>
       <r>   10.4922   -0.0000 </r>
       <r>   11.6049   -0.0000 </r>
       <r>   13.3643   -0.0000 </r>
       <r>   13.3643   -0.0000 </r>
       <r>   15.3926    0.0000 </r>
       <r>   15.3926    0.0000 </r>
       <r>   16.5927    0.0000 </r>
       <r>   17.9571    0.0000 </r>
      </set>
      <set comment="kpoint 32">
       <r>   -1.9223    1.0000 </r>
       <r>    4.1231    1.0000 </r>
       <r>    5.0077    1.0000 </r>
       <r>    7.0179    1.0000 </r>
       <r>    8.6065    1.0000 </r>
       <r>   10.6165   -0.0000 </r>
       <r>   10.9525   -0.0000 </r>
       <r>   11.4834   -0.0000 </r>
       <r>   12.6475   -0.0000 </r>
       <r>   13.5117   -0.0000 </r>
       <r>   14.8382   -0.0000 </r>
       <r>   15.5431    0.0000 </r>
       <r>   16.3726    0.0000 </r>
       <r>   18.5425    0.0000 </r>
      </set>
      <set comment="kpoint 33">
       <r>   -1.7173    1.0000 </r>
       <r>    3.4161    1.0000 </r>
       <r>    5.1990    1.0000 </r>
       <r>    7.2027    1.0000 </r>
       <r>    8.7171    1.0000 </r>
       <r>   10.3656   -0.0005 </r>
       <r>   10.7668   -0.0000 </r>
       <r>   11.9678   -0.0000 </r>
       <r>   12.5139   -0.0000 </r>
       <r>   13.7011   -0.0000 </r>
       <r>   14.2829   -0.0000 </r>
       <r>   15.7412    0.0000 </r>
       <r>   15.8665    0.0000 </r>
       <r>   18.5131    0.0000 </r>
      </set>
      <set comment="kpoint 34">
       <r>   -1.4672    1.0000 </r>
       <r>    2.7438    1.0000 </r>
       <r>    5.4322    1.0000 </r>
       <r>    7.4288    1.0000 </r>
       <r>    8.7405    1.0000 </r>
       <r>    9.9363    0.1076 </r>
       <r>   10.9296   -0.0000 </r>
       <r>   11.3278   -0.0000 </r>
       <r>   13.5694   -0.0000 </r>
       <r>   13.7628   -0.0000 </r>
       <r>   13.9327   -0.0000 </r>
       <r>   15.3159    0.0000 </r>
       <r>   15.9948    0.0000 </r>
       <r>   17.8764    0.0000 </r>
      </set>
      <set comment="kpoint 35">
       <r>   -1.1723    1.0000 </r>
       <r>    2.1093    1.0000 </r>
       <r>    5.7067    1.0000 </r>
       <r>    7.6961    1.0000 </r>
       <r>    8.5242    1.0000 </r>
       <r>    9.8190    0.5375 </r>
       <r>   10.7287   -0.0000 </r>
       <r>   11.0760   -0.0000 </r>
       <r>   13.3199   -0.0000 </r>
       <r>   14.2061   -0.0000 </r>
       <r>   14.6235   -0.0000 </r>
       <r>   14.7758   -0.0000 </r>
       <r>   16.3265    0.0000 </r>
       <r>   17.2773    0.0000 </r>
      </set>
      <set comment="kpoint 36">
       <r>   -0.8329    1.0000 </r>
       <r>    1.5143    1.0000 </r>
       <r>    6.0218    1.0000 </r>
       <r>    8.0048    1.0000 </r>
       <r>    8.1119    1.0000 </r>
       <r>    9.9681    0.0398 </r>
       <r>   10.1708   -0.0179 </r>
       <r>   11.1467   -0.0000 </r>
       <r>   13.0210   -0.0000 </r>
       <r>   14.2670   -0.0000 </r>
       <r>   14.5213   -0.0000 </r>
       <r>   15.5998    0.0000 </r>
       <r>   16.7168    0.0000 </r>
       <r>   16.8101    0.0000 </r>
      </set>
      <set comment="kpoint 37">
       <r>   -0.4495    1.0000 </r>
       <r>    0.9601    1.0000 </r>
       <r>    6.3765    1.0000 </r>
       <r>    7.6496    1.0000 </r>
       <r>    8.3548    1.0000 </r>
       <r>    9.6543    1.0054 </r>
       <r>   10.2316   -0.0075 </r>
       <r>   11.0674   -0.0000 </r>
       <r>   12.9458   -0.0000 </r>
       <r>   13.8037   -0.0000 </r>
       <r>   14.8785   -0.0000 </r>
       <r>   16.1965    0.0000 </r>
       <r>   16.3465    0.0000 </r>
       <r>   17.5951    0.0000 </r>
      </set>
      <set comment="kpoint 38">
       <r>   -0.0225    1.0000 </r>
       <r>    0.4476    1.0000 </r>
       <r>    6.7690    1.0000 </r>
       <r>    7.1957    1.0000 </r>
       <r>    8.7464    1.0000 </r>
       <r>    9.1796    1.0000 </r>
       <r>   10.5378   -0.0000 </r>
       <r>   10.8387   -0.0000 </r>
       <r>   13.0976   -0.0000 </r>
       <r>   13.4036   -0.0000 </r>
       <r>   15.2766   -0.0000 </r>
       <r>   15.7163    0.0000 </r>
       <r>   16.8828    0.0000 </r>
       <r>   17.3575    0.0000 </r>
      </set>
      <set comment="kpoint 39">
       <r>   -1.7628    1.0000 </r>
       <r>    4.2737    1.0000 </r>
       <r>    4.2737    1.0000 </r>
       <r>    7.1616    1.0000 </r>
       <r>    8.6739    1.0000 </r>
       <r>   10.3501   -0.0007 </r>
       <r>   11.5941   -0.0000 </r>
       <r>   11.5941   -0.0000 </r>
       <r>   12.7942   -0.0000 </r>
       <r>   12.7942   -0.0000 </r>
       <r>   15.0041   -0.0000 </r>
       <r>   15.0041   -0.0000 </r>
       <r>   16.8579    0.0000 </r>
       <r>   18.4075    0.0000 </r>
      </set>
      <set comment="kpoint 40">
       <r>   -1.5581    1.0000 </r>
       <r>    3.5679    1.0000 </r>
       <r>    4.4669    1.0000 </r>
       <r>    7.3466    1.0000 </r>
       <r>    8.6541    1.0000 </r>
       <r>    9.8966    0.2273 </r>
       <r>   11.7186   -0.0000 </r>
       <r>   12.1140   -0.0000 </r>
       <r>   12.6002   -0.0000 </r>
       <r>   12.9829   -0.0000 </r>
       <r>   14.4753   -0.0000 </r>
       <r>   15.2296   -0.0000 </r>
       <r>   16.6808    0.0000 </r>
       <r>   17.7939    0.0000 </r>
      </set>
      <set comment="kpoint 41">
       <r>   -1.3083    1.0000 </r>
       <r>    2.8967    1.0000 </r>
       <r>    4.7024    1.0000 </r>
       <r>    7.5728    1.0000 </r>
       <r>    8.4015    1.0000 </r>
       <r>    9.7460    0.8165 </r>
       <r>   11.4737   -0.0000 </r>
       <r>   11.8293   -0.0000 </r>
       <r>   13.2134   -0.0000 </r>
       <r>   13.6055   -0.0000 </r>
       <r>   14.0071   -0.0000 </r>
       <r>   15.5371    0.0000 </r>
       <r>   16.2107    0.0000 </r>
       <r>   17.1542    0.0000 </r>
      </set>
      <set comment="kpoint 42">
       <r>   -1.0138    1.0000 </r>
       <r>    2.2632    1.0000 </r>
       <r>    4.9799    1.0000 </r>
       <r>    7.8402    1.0000 </r>
       <r>    7.9554    1.0000 </r>
       <r>    9.8625    0.3559 </r>
       <r>   10.8743   -0.0000 </r>
       <r>   11.8670   -0.0000 </r>
       <r>   13.4858   -0.0000 </r>
       <r>   13.6714   -0.0000 </r>
       <r>   14.5436   -0.0000 </r>
       <r>   15.6948    0.0000 </r>
       <r>   15.9893    0.0000 </r>
       <r>   16.5532    0.0000 </r>
      </set>
      <set comment="kpoint 43">
       <r>   -0.6749    1.0000 </r>
       <r>    1.6690    1.0000 </r>
       <r>    5.2987    1.0000 </r>
       <r>    7.4554    1.0000 </r>
       <r>    8.1490    1.0000 </r>
       <r>   10.1066   -0.0320 </r>
       <r>   10.3161   -0.0015 </r>
       <r>   11.7527   -0.0000 </r>
       <r>   13.5549   -0.0000 </r>
       <r>   13.7998   -0.0000 </r>
       <r>   15.1910   -0.0000 </r>
       <r>   15.2955    0.0000 </r>
       <r>   15.9922    0.0000 </r>
       <r>   16.7023    0.0000 </r>
      </set>
      <set comment="kpoint 44">
       <r>   -0.2920    1.0000 </r>
       <r>    1.1156    1.0000 </r>
       <r>    5.6579    1.0000 </r>
       <r>    6.9610    1.0000 </r>
       <r>    8.4993    1.0000 </r>
       <r>    9.7995    0.6186 </r>
       <r>   10.4161   -0.0001 </r>
       <r>   11.4817   -0.0000 </r>
       <r>   13.6672   -0.0000 </r>
       <r>   14.1556   -0.0000 </r>
       <r>   14.7201   -0.0000 </r>
       <r>   15.4713    0.0000 </r>
       <r>   15.8485    0.0000 </r>
       <r>   17.2564    0.0000 </r>
      </set>
      <set comment="kpoint 45">
       <r>    0.1344    1.0000 </r>
       <r>    0.6038    1.0000 </r>
       <r>    6.0564    1.0000 </r>
       <r>    6.4920    1.0000 </r>
       <r>    8.8911    1.0000 </r>
       <r>    9.3245    1.0011 </r>
       <r>   10.7649   -0.0000 </r>
       <r>   11.1313   -0.0000 </r>
       <r>   13.9344   -0.0000 </r>
       <r>   14.2956   -0.0000 </r>
       <r>   14.5531   -0.0000 </r>
       <r>   14.9916   -0.0000 </r>
       <r>   16.3204    0.0000 </r>
       <r>   16.7811    0.0000 </r>
      </set>
      <set comment="kpoint 46">
       <r>   -1.3537    1.0000 </r>
       <r>    3.7628    1.0000 </r>
       <r>    3.7628    1.0000 </r>
       <r>    7.5317    1.0000 </r>
       <r>    8.3603    1.0000 </r>
       <r>    9.7184    0.8950 </r>
       <r>   12.3021   -0.0000 </r>
       <r>   12.3021   -0.0000 </r>
       <r>   12.6735   -0.0000 </r>
       <r>   12.6735   -0.0000 </r>
       <r>   14.7537   -0.0000 </r>
       <r>   14.7537   -0.0000 </r>
       <r>   17.1132    0.0000 </r>
       <r>   17.1996    0.0000 </r>
      </set>
      <set comment="kpoint 47">
       <r>   -1.1043    1.0000 </r>
       <r>    3.0930    1.0000 </r>
       <r>    4.0004    1.0000 </r>
       <r>    7.7580    1.0000 </r>
       <r>    7.8758    1.0000 </r>
       <r>    9.8010    0.6129 </r>
       <r>   11.6613   -0.0000 </r>
       <r>   12.5320   -0.0000 </r>
       <r>   12.6744   -0.0000 </r>
       <r>   13.5672   -0.0000 </r>
       <r>   14.3956   -0.0000 </r>
       <r>   15.1751   -0.0000 </r>
       <r>   16.4709    0.0000 </r>
       <r>   17.0688    0.0000 </r>
      </set>
      <set comment="kpoint 48">
       <r>   -0.8103    1.0000 </r>
       <r>    2.4607    1.0000 </r>
       <r>    4.2804    1.0000 </r>
       <r>    7.3363    1.0000 </r>
       <r>    8.0256    1.0000 </r>
       <r>   10.0128   -0.0154 </r>
       <r>   11.0615   -0.0000 </r>
       <r>   12.5209   -0.0000 </r>
       <r>   12.8037   -0.0000 </r>
       <r>   14.2503   -0.0000 </r>
       <r>   14.2977   -0.0000 </r>
       <r>   15.8378    0.0000 </r>
       <r>   15.8685    0.0000 </r>
       <r>   16.6419    0.0000 </r>
      </set>
      <set comment="kpoint 49">
       <r>   -0.4720    1.0000 </r>
       <r>    1.8678    1.0000 </r>
       <r>    4.6023    1.0000 </r>
       <r>    6.8007    1.0000 </r>
       <r>    8.3346    1.0000 </r>
       <r>   10.2959   -0.0023 </r>
       <r>   10.5030   -0.0000 </r>
       <r>   12.2078   -0.0000 </r>
       <r>   13.1170   -0.0000 </r>
       <r>   14.3305   -0.0000 </r>
       <r>   14.8439   -0.0000 </r>
       <r>   15.3069    0.0000 </r>
       <r>   16.1659    0.0000 </r>
       <r>   16.7594    0.0000 </r>
      </set>
      <set comment="kpoint 50">
       <r>   -0.0898    1.0000 </r>
       <r>    1.3153    1.0000 </r>
       <r>    4.9653    1.0000 </r>
       <r>    6.2894    1.0000 </r>
       <r>    8.6851    1.0000 </r>
       <r>    9.9861    0.0122 </r>
       <r>   10.6291   -0.0000 </r>
       <r>   11.8138   -0.0000 </r>
       <r>   13.4719   -0.0000 </r>
       <r>   14.5619   -0.0000 </r>
       <r>   14.7863   -0.0000 </r>
       <r>   15.3021    0.0000 </r>
       <r>   15.7017    0.0000 </r>
       <r>   16.6695    0.0000 </r>
      </set>
      <set comment="kpoint 51">
       <r>    0.3359    1.0000 </r>
       <r>    0.8045    1.0000 </r>
       <r>    5.3686    1.0000 </r>
       <r>    5.8107    1.0000 </r>
       <r>    9.0771    1.0000 </r>
       <r>    9.5107    1.0237 </r>
       <r>   11.0011   -0.0000 </r>
       <r>   11.4013   -0.0000 </r>
       <r>   13.8685   -0.0000 </r>
       <r>   14.3069   -0.0000 </r>
       <r>   14.8852   -0.0000 </r>
       <r>   15.2704   -0.0000 </r>
       <r>   15.7428    0.0000 </r>
       <r>   16.1950    0.0000 </r>
      </set>
      <set comment="kpoint 52">
       <r>   -0.8555    1.0000 </r>
       <r>    3.3325    1.0000 </r>
       <r>    3.3325    1.0000 </r>
       <r>    7.2962    1.0000 </r>
       <r>    7.9845    1.0000 </r>
       <r>    9.9793    0.0218 </r>
       <r>   11.8906   -0.0000 </r>
       <r>   11.8906   -0.0000 </r>
       <r>   13.3704   -0.0000 </r>
       <r>   13.3704   -0.0000 </r>
       <r>   15.0158   -0.0000 </r>
       <r>   15.0158   -0.0000 </r>
       <r>   15.8272    0.0000 </r>
       <r>   17.6184    0.0000 </r>
      </set>
      <set comment="kpoint 53">
       <r>   -0.5621    1.0000 </r>
       <r>    2.7017    1.0000 </r>
       <r>    3.6146    1.0000 </r>
       <r>    6.7197    1.0000 </r>
       <r>    8.2523    1.0000 </r>
       <r>   10.2288   -0.0079 </r>
       <r>   11.2904   -0.0000 </r>
       <r>   12.1617   -0.0000 </r>
       <r>   13.0136   -0.0000 </r>
       <r>   13.8946   -0.0000 </r>
       <r>   15.0733   -0.0000 </r>
       <r>   15.2245   -0.0000 </r>
       <r>   15.8857    0.0000 </r>
       <r>   17.1223    0.0000 </r>
      </set>
      <set comment="kpoint 54">
       <r>   -0.2246    1.0000 </r>
       <r>    2.1101    1.0000 </r>
       <r>    3.9391    1.0000 </r>
       <r>    6.1665    1.0000 </r>
       <r>    8.5615    1.0000 </r>
       <r>   10.5310   -0.0000 </r>
       <r>   10.7315   -0.0000 </r>
       <r>   12.4744   -0.0000 </r>
       <r>   12.5781   -0.0000 </r>
       <r>   14.3299   -0.0000 </r>
       <r>   14.6626   -0.0000 </r>
       <r>   15.2737   -0.0000 </r>
       <r>   16.5929    0.0000 </r>
       <r>   16.9192    0.0000 </r>
      </set>
      <set comment="kpoint 55">
       <r>    0.1569    1.0000 </r>
[...]
       <r>    2.5705    1.0000 </r>
       <r>    3.9258    1.0000 </r>
       <r>    3.9258    1.0000 </r>
       <r>    4.7118    1.0000 </r>
       <r>    5.5152    1.0000 </r>
       <r>    6.2937    1.0000 </r>
       <r>    6.2937    1.0000 </r>
       <r>    7.6197    1.0000 </r>
       <r>   19.0844    0.0000 </r>
       <r>   19.7582    0.0000 </r>
       <r>   19.7582    0.0000 </r>
       <r>   20.3344    0.0000 </r>
       <r>   20.3345    0.0000 </r>
       <r>   20.5210    0.0000 </r>
      </set>
      <set comment="kpoint 281">
       <r>    2.9840    1.0000 </r>
       <r>    3.4370    1.0000 </r>
       <r>    4.3116    1.0000 </r>
       <r>    4.6700    1.0000 </r>
       <r>    5.4714    1.0000 </r>
       <r>    5.8273    1.0000 </r>
       <r>    6.6895    1.0000 </r>
       <r>    7.1327    1.0000 </r>
       <r>   19.4193    0.0000 </r>
       <r>   19.6957    0.0000 </r>
       <r>   20.4460    0.0000 </r>
       <r>   20.4494    0.0000 </r>
       <r>   20.6110    0.0000 </r>
       <r>   20.8861    0.0000 </r>
      </set>
      <set comment="kpoint 282">
       <r>    3.3937    1.0000 </r>
       <r>    3.8399    1.0000 </r>
       <r>    3.8399    1.0000 </r>
       <r>    4.2691    1.0000 </r>
       <r>    5.7842    1.0000 </r>
       <r>    6.2084    1.0000 </r>
       <r>    6.2084    1.0000 </r>
       <r>    6.6471    1.0000 </r>
       <r>   19.8008    0.0000 </r>
       <r>   20.1544    0.0000 </r>
       <r>   20.1545    0.0000 </r>
       <r>   20.5429    0.0000 </r>
       <r>   21.2376    0.0000 </r>
       <r>   21.3148    0.0000 </r>
      </set>
      <set comment="kpoint 283">
       <r>    2.9404    1.0000 </r>
       <r>    4.2689    1.0000 </r>
       <r>    4.2689    1.0000 </r>
       <r>    4.2689    1.0000 </r>
       <r>    5.7845    1.0000 </r>
       <r>    5.7845    1.0000 </r>
       <r>    5.7845    1.0000 </r>
       <r>    7.0908    1.0000 </r>
       <r>   20.1744    0.0000 </r>
       <r>   20.1744    0.0000 </r>
       <r>   20.1745    0.0000 </r>
       <r>   20.8325    0.0000 </r>
       <r>   20.8325    0.0000 </r>
       <r>   20.8326    0.0000 </r>
      </set>
      <set comment="kpoint 284">
       <r>    3.3504    1.0000 </r>
       <r>    3.7968    1.0000 </r>
       <r>    4.5858    1.0000 </r>
       <r>    4.5858    1.0000 </r>
       <r>    5.3844    1.0000 </r>
       <r>    5.3844    1.0000 </r>
       <r>    6.1660    1.0000 </r>
       <r>    6.6050    1.0000 </r>
       <r>   20.4311    0.0000 </r>
       <r>   20.4312    0.0000 </r>
       <r>   20.9609    0.0000 </r>
       <r>   20.9630    0.0000 </r>
       <r>   21.1859    0.0000 </r>
       <r>   21.2192    0.0000 </r>
      </set>
      <set comment="kpoint 285">
       <r>    3.7538    1.0000 </r>
       <r>    4.1836    1.0000 </r>
       <r>    4.1836    1.0000 </r>
       <r>    4.5438    1.0000 </r>
       <r>    5.3407    1.0000 </r>
       <r>    5.6984    1.0000 </r>
       <r>    5.6984    1.0000 </r>
       <r>    6.1233    1.0000 </r>
       <r>   20.8343    0.0000 </r>
       <r>   21.1045    0.0000 </r>
       <r>   21.1066    0.0000 </r>
       <r>   21.4645    0.0000 </r>
       <r>   21.5448    0.0000 </r>
       <r>   21.5720    0.0000 </r>
      </set>
      <set comment="kpoint 286">
       <r>    4.1409    1.0000 </r>
       <r>    4.5018    1.0000 </r>
       <r>    4.5018    1.0000 </r>
       <r>    4.5018    1.0000 </r>
       <r>    5.2970    1.0000 </r>
       <r>    5.2970    1.0000 </r>
       <r>    5.2970    1.0000 </r>
       <r>    5.6553    1.0000 </r>
       <r>   21.7327    0.0000 </r>
       <r>   21.7342    0.0000 </r>
       <r>   21.7390    0.0000 </r>
       <r>   21.8120    0.0000 </r>
       <r>   21.8149    0.0000 </r>
       <r>   21.9513    0.0000 </r>
      </set>
     </set>
    </set>
   </array>
  </eigenvalues>
  <separator name="orbital magnetization" >
   <v name="MAGDIPOLOUT">      0.00000000      0.00000000      0.00000000</v>
  </separator>
  <dos>
   <i name="efermi">      9.82790159 </i>
   <total>
    <array>
     <dimension dim="1">gridpoints</dimension>
     <dimension dim="2">spin</dimension>
     <field>energy</field>
     <field>total</field>
     <field>integrated</field>
     <set>
      <set comment="spin 1">
       <r>    -4.4937     0.0000     0.0000 </r>
       <r>    -4.3989     0.0000     0.0000 </r>
       <r>    -4.3041     0.0000     0.0000 </r>
       <r>    -4.2093     0.0000     0.0000 </r>
       <r>    -4.1145    -0.0000    -0.0000 </r>
       <r>    -4.0197    -0.0000    -0.0000 </r>
       <r>    -3.9248    -0.0000    -0.0000 </r>
       <r>    -3.8300    -0.0000    -0.0000 </r>
       <r>    -3.7352    -0.0000    -0.0000 </r>
       <r>    -3.6404    -0.0000    -0.0000 </r>
       <r>    -3.5456    -0.0000    -0.0000 </r>
       <r>    -3.4508    -0.0000    -0.0000 </r>
       <r>    -3.3559    -0.0000    -0.0000 </r>
       <r>    -3.2611    -0.0000    -0.0000 </r>
       <r>    -3.1663    -0.0000    -0.0000 </r>
       <r>    -3.0715    -0.0000    -0.0000 </r>
       <r>    -2.9767    -0.0000    -0.0000 </r>
       <r>    -2.8819    -0.0004    -0.0000 </r>
       <r>    -2.7870    -0.0017    -0.0002 </r>
       <r>    -2.6922    -0.0042    -0.0006 </r>
       <r>    -2.5974    -0.0019    -0.0008 </r>
       <r>    -2.5026     0.0200     0.0011 </r>
       <r>    -2.4078     0.0693     0.0077 </r>
       <r>    -2.3130     0.1311     0.0201 </r>
       <r>    -2.2181     0.1844     0.0376 </r>
       <r>    -2.1233     0.2237     0.0588 </r>
       <r>    -2.0285     0.2545     0.0829 </r>
       <r>    -1.9337     0.2820     0.1097 </r>
       <r>    -1.8389     0.3075     0.1388 </r>
       <r>    -1.7441     0.3292     0.1700 </r>
       <r>    -1.6492     0.3527     0.2035 </r>
       <r>    -1.5544     0.3753     0.2391 </r>
       <r>    -1.4596     0.3896     0.2760 </r>
       <r>    -1.3648     0.4099     0.3149 </r>
       <r>    -1.2700     0.4361     0.3562 </r>
       <r>    -1.1752     0.4462     0.3985 </r>
       <r>    -1.0803     0.4555     0.4417 </r>
       <r>    -0.9855     0.4830     0.4875 </r>
       <r>    -0.8907     0.5059     0.5355 </r>
       <r>    -0.7959     0.5103     0.5839 </r>
       <r>    -0.7011     0.5128     0.6325 </r>
       <r>    -0.6063     0.5382     0.6835 </r>
       <r>    -0.5114     0.5757     0.7381 </r>
       <r>    -0.4166     0.5772     0.7928 </r>
       <r>    -0.3218     0.5588     0.8458 </r>
       <r>    -0.2270     0.5845     0.9012 </r>
       <r>    -0.1322     0.6307     0.9610 </r>
       <r>    -0.0374     0.6401     1.0217 </r>
       <r>     0.0575     0.6288     1.0813 </r>
       <r>     0.1523     0.6310     1.1412 </r>
       <r>     0.2471     0.6490     1.2027 </r>
       <r>     0.3419     0.6796     1.2672 </r>
       <r>     0.4367     0.7107     1.3345 </r>
       <r>     0.5315     0.7149     1.4023 </r>
       <r>     0.6264     0.6862     1.4674 </r>
       <r>     0.7212     0.6752     1.5314 </r>
       <r>     0.8160     0.7328     1.6009 </r>
       <r>     0.9108     0.7974     1.6765 </r>
       <r>     1.0056     0.7811     1.7506 </r>
       <r>     1.1004     0.7333     1.8201 </r>
       <r>     1.1953     0.7401     1.8903 </r>
       <r>     1.2901     0.7855     1.9648 </r>
       <r>     1.3849     0.8152     2.0420 </r>
       <r>     1.4797     0.8198     2.1198 </r>
       <r>     1.5745     0.8355     2.1990 </r>
       <r>     1.6693     0.8500     2.2796 </r>
       <r>     1.7642     0.8204     2.3574 </r>
       <r>     1.8590     0.8009     2.4333 </r>
       <r>     1.9538     0.8418     2.5131 </r>
       <r>     2.0486     0.9031     2.5988 </r>
       <r>     2.1434     0.9435     2.6882 </r>
       <r>     2.2382     0.9243     2.7759 </r>
       <r>     2.3331     0.8589     2.8573 </r>
       <r>     2.4279     0.8402     2.9370 </r>
       <r>     2.5227     0.8990     3.0222 </r>
       <r>     2.6175     0.9764     3.1148 </r>
       <r>     2.7123     1.0040     3.2100 </r>
       <r>     2.8071     0.9611     3.3011 </r>
       <r>     2.9020     0.9266     3.3889 </r>
       <r>     2.9968     0.9633     3.4803 </r>
       <r>     3.0916     0.9936     3.5745 </r>
       <r>     3.1864     0.9666     3.6661 </r>
       <r>     3.2812     0.9618     3.7573 </r>
       <r>     3.3760     1.0214     3.8542 </r>
       <r>     3.4709     1.0861     3.9572 </r>
       <r>     3.5657     1.0917     4.0607 </r>
       <r>     3.6605     1.0414     4.1594 </r>
       <r>     3.7553     0.9899     4.2533 </r>
       <r>     3.8501     0.9816     4.3463 </r>
       <r>     3.9449     1.0472     4.4456 </r>
       <r>     4.0398     1.1509     4.5548 </r>
       <r>     4.1346     1.1866     4.6673 </r>
       <r>     4.2294     1.1398     4.7753 </r>
       <r>     4.3242     1.0964     4.8793 </r>
       <r>     4.4190     1.0956     4.9832 </r>
       <r>     4.5138     1.1261     5.0900 </r>
       <r>     4.6087     1.1879     5.2026 </r>
       <r>     4.7035     1.2469     5.3208 </r>
       <r>     4.7983     1.2213     5.4366 </r>
       <r>     4.8931     1.1447     5.5452 </r>
       <r>     4.9879     1.1411     5.6534 </r>
       <r>     5.0827     1.1681     5.7641 </r>
       <r>     5.1776     1.1254     5.8708 </r>
       <r>     5.2724     1.0753     5.9728 </r>
       <r>     5.3672     1.0896     6.0761 </r>
       <r>     5.4620     1.1319     6.1834 </r>
       <r>     5.5568     1.1731     6.2946 </r>
       <r>     5.6516     1.2514     6.4133 </r>
       <r>     5.7465     1.3317     6.5396 </r>
       <r>     5.8413     1.2884     6.6617 </r>
       <r>     5.9361     1.1517     6.7709 </r>
       <r>     6.0309     1.0988     6.8751 </r>
       <r>     6.1257     1.2132     6.9902 </r>
       <r>     6.2205     1.3877     7.1217 </r>
       <r>     6.3154     1.4355     7.2578 </r>
       <r>     6.4102     1.3599     7.3868 </r>
       <r>     6.5050     1.2993     7.5100 </r>
       <r>     6.5998     1.2925     7.6325 </r>
       <r>     6.6946     1.3639     7.7618 </r>
       <r>     6.7895     1.4955     7.9036 </r>
       <r>     6.8843     1.4934     8.0452 </r>
       <r>     6.9791     1.3114     8.1696 </r>
       <r>     7.0739     1.2133     8.2846 </r>
       <r>     7.1687     1.3188     8.4097 </r>
       <r>     7.2635     1.4018     8.5426 </r>
       <r>     7.3584     1.3387     8.6695 </r>
       <r>     7.4532     1.2722     8.7901 </r>
       <r>     7.5480     1.2643     8.9100 </r>
       <r>     7.6428     1.2520     9.0287 </r>
       <r>     7.7376     1.2385     9.1461 </r>
       <r>     7.8324     1.2862     9.2681 </r>
       <r>     7.9273     1.3197     9.3932 </r>
       <r>     8.0221     1.2501     9.5118 </r>
       <r>     8.1169     1.2365     9.6290 </r>
       <r>     8.2117     1.3623     9.7582 </r>
       <r>     8.3065     1.4231     9.8931 </r>
       <r>     8.4013     1.3440    10.0206 </r>
       <r>     8.4962     1.3239    10.1461 </r>
       <r>     8.5910     1.4419    10.2828 </r>
       <r>     8.6858     1.5385    10.4287 </r>
       <r>     8.7806     1.5483    10.5755 </r>
       <r>     8.8754     1.5460    10.7221 </r>
       <r>     8.9702     1.5349    10.8676 </r>
       <r>     9.0651     1.4765    11.0076 </r>
       <r>     9.1599     1.3816    11.1386 </r>
       <r>     9.2547     1.2840    11.2603 </r>
       <r>     9.3495     1.2212    11.3761 </r>
       <r>     9.4443     1.2361    11.4933 </r>
       <r>     9.5391     1.2853    11.6152 </r>
       <r>     9.6340     1.2970    11.7382 </r>
       <r>     9.7288     1.3155    11.8629 </r>
       <r>     9.8236     1.3811    11.9939 </r>
       <r>     9.9184     1.4538    12.1317 </r>
       <r>    10.0132     1.5002    12.2740 </r>
       <r>    10.1080     1.4923    12.4154 </r>
       <r>    10.2029     1.4119    12.5493 </r>
       <r>    10.2977     1.3650    12.6787 </r>
       <r>    10.3925     1.4737    12.8185 </r>
       <r>    10.4873     1.6593    12.9758 </r>
       <r>    10.5821     1.7800    13.1446 </r>
       <r>    10.6769     1.7658    13.3120 </r>
       <r>    10.7718     1.6075    13.4644 </r>
       <r>    10.8666     1.4233    13.5994 </r>
       <r>    10.9614     1.3516    13.7275 </r>
       <r>    11.0562     1.3861    13.8590 </r>
       <r>    11.1510     1.4404    13.9955 </r>
       <r>    11.2458     1.4823    14.1361 </r>
       <r>    11.3407     1.5476    14.2828 </r>
       <r>    11.4355     1.6483    14.4391 </r>
       <r>    11.5303     1.7123    14.6015 </r>
       <r>    11.6251     1.6425    14.7572 </r>
       <r>    11.7199     1.5086    14.9002 </r>
       <r>    11.8147     1.4477    15.0375 </r>
       <r>    11.9096     1.3722    15.1676 </r>
       <r>    12.0044     1.2624    15.2873 </r>
       <r>    12.0992     1.3418    15.4145 </r>
       <r>    12.1940     1.5884    15.5651 </r>
       <r>    12.2888     1.7244    15.7286 </r>
       <r>    12.3836     1.7327    15.8929 </r>
       <r>    12.4785     1.7450    16.0584 </r>
       <r>    12.5733     1.6672    16.2165 </r>
       <r>    12.6681     1.4652    16.3554 </r>
       <r>    12.7629     1.3726    16.4855 </r>
       <r>    12.8577     1.5086    16.6286 </r>
       <r>    12.9525     1.6957    16.7894 </r>
       <r>    13.0474     1.7611    16.9563 </r>
       <r>    13.1422     1.7296    17.1203 </r>
       <r>    13.2370     1.6300    17.2749 </r>
       <r>    13.3318     1.5003    17.4171 </r>
       <r>    13.4266     1.5391    17.5631 </r>
       <r>    13.5214     1.7553    17.7295 </r>
       <r>    13.6163     1.8155    17.9017 </r>
       <r>    13.7111     1.6647    18.0595 </r>
       <r>    13.8059     1.6436    18.2153 </r>
       <r>    13.9007     1.7825    18.3844 </r>
       <r>    13.9955     1.7938    18.5544 </r>
       <r>    14.0903     1.6473    18.7106 </r>
       <r>    14.1852     1.5772    18.8602 </r>
       <r>    14.2800     1.6857    19.0200 </r>
       <r>    14.3748     1.8186    19.1924 </r>
       <r>    14.4696     1.8183    19.3648 </r>
       <r>    14.5644     1.7181    19.5277 </r>
       <r>    14.6592     1.6609    19.6852 </r>
       <r>    14.7541     1.7544    19.8516 </r>
       <r>    14.8489     1.9152    20.0332 </r>
       <r>    14.9437     1.9275    20.2159 </r>
       <r>    15.0385     1.8013    20.3867 </r>
       <r>    15.1333     1.7550    20.5531 </r>
       <r>    15.2281     1.8142    20.7251 </r>
       <r>    15.3230     1.8058    20.8964 </r>
       <r>    15.4178     1.7313    21.0605 </r>
       <r>    15.5126     1.7762    21.2289 </r>
       <r>    15.6074     1.9252    21.4115 </r>
       <r>    15.7022     1.9757    21.5988 </r>
       <r>    15.7970     1.9023    21.7792 </r>
       <r>    15.8919     1.8309    21.9528 </r>
       <r>    15.9867     1.8580    22.1289 </r>
       <r>    16.0815     2.0585    22.3241 </r>
       <r>    16.1763     2.3044    22.5426 </r>
       <r>    16.2711     2.3097    22.7616 </r>
       <r>    16.3659     2.0750    22.9584 </r>
       <r>    16.4608     1.8705    23.1357 </r>
       <r>    16.5556     1.8870    23.3146 </r>
       <r>    16.6504     2.0598    23.5100 </r>
       <r>    16.7452     2.1633    23.7151 </r>
       <r>    16.8400     2.1598    23.9199 </r>
       <r>    16.9348     2.2053    24.1290 </r>
       <r>    17.0297     2.2347    24.3408 </r>
       <r>    17.1245     2.0504    24.5353 </r>
       <r>    17.2193     1.7837    24.7044 </r>
       <r>    17.3141     1.7237    24.8678 </r>
       <r>    17.4089     1.8390    25.0422 </r>
       <r>    17.5037     1.9006    25.2224 </r>
       <r>    17.5986     1.8663    25.3993 </r>
       <r>    17.6934     1.8205    25.5720 </r>
       <r>    17.7882     1.7559    25.7384 </r>
       <r>    17.8830     1.6724    25.8970 </r>
       <r>    17.9778     1.6156    26.0502 </r>
       <r>    18.0726     1.5437    26.1966 </r>
       <r>    18.1675     1.3646    26.3260 </r>
       <r>    18.2623     1.1578    26.4357 </r>
       <r>    18.3571     1.1264    26.5425 </r>
       <r>    18.4519     1.2009    26.6564 </r>
       <r>    18.5467     1.1340    26.7639 </r>
       <r>    18.6415     0.9373    26.8528 </r>
       <r>    18.7364     0.8205    26.9306 </r>
       <r>    18.8312     0.8348    27.0098 </r>
       <r>    18.9260     0.8185    27.0874 </r>
       <r>    19.0208     0.7093    27.1546 </r>
       <r>    19.1156     0.6340    27.2147 </r>
       <r>    19.2104     0.6413    27.2755 </r>
       <r>    19.3053     0.6756    27.3396 </r>
       <r>    19.4001     0.6869    27.4047 </r>
       <r>    19.4949     0.6222    27.4637 </r>
       <r>    19.5897     0.5144    27.5125 </r>
       <r>    19.6845     0.4584    27.5559 </r>
       <r>    19.7793     0.4599    27.5995 </r>
       <r>    19.8742     0.4400    27.6413 </r>
       <r>    19.9690     0.3609    27.6755 </r>
       <r>    20.0638     0.2958    27.7035 </r>
       <r>    20.1586     0.3032    27.7323 </r>
       <r>    20.2534     0.3332    27.7639 </r>
       <r>    20.3482     0.3459    27.7967 </r>
       <r>    20.4431     0.3449    27.8294 </r>
       <r>    20.5379     0.3091    27.8587 </r>
       <r>    20.6327     0.2279    27.8803 </r>
       <r>    20.7275     0.1495    27.8945 </r>
       <r>    20.8223     0.1287    27.9067 </r>
       <r>    20.9171     0.1478    27.9207 </r>
       <r>    21.0120     0.1532    27.9352 </r>
       <r>    21.1068     0.1388    27.9484 </r>
       <r>    21.2016     0.1204    27.9598 </r>
       <r>    21.2964     0.0931    27.9686 </r>
       <r>    21.3912     0.0637    27.9747 </r>
       <r>    21.4860     0.0543    27.9798 </r>
       <r>    21.5809     0.0582    27.9853 </r>
       <r>    21.6757     0.0539    27.9904 </r>
       <r>    21.7705     0.0433    27.9945 </r>
       <r>    21.8653     0.0321    27.9976 </r>
       <r>    21.9601     0.0188    27.9994 </r>
       <r>    22.0549     0.0072    28.0000 </r>
       <r>    22.1498     0.0010    28.0001 </r>
       <r>    22.2446    -0.0008    28.0001 </r>
       <r>    22.3394    -0.0006    28.0000 </r>
       <r>    22.4342    -0.0002    28.0000 </r>
       <r>    22.5290    -0.0000    28.0000 </r>
       <r>    22.6238    -0.0000    28.0000 </r>
       <r>    22.7187    -0.0000    28.0000 </r>
       <r>    22.8135    -0.0000    28.0000 </r>
       <r>    22.9083    -0.0000    28.0000 </r>
       <r>    23.0031    -0.0000    28.0000 </r>
       <r>    23.0979    -0.0000    28.0000 </r>
       <r>    23.1927    -0.0000    28.0000 </r>
       <r>    23.2876     0.0000    28.0000 </r>
       <r>    23.3824     0.0000    28.0000 </r>
       <r>    23.4772     0.0000    28.0000 </r>
       <r>    23.5720     0.0000    28.0000 </r>
       <r>    23.6668     0.0000    28.0000 </r>
       <r>    23.7616     0.0000    28.0000 </r>
       <r>    23.8565     0.0000    28.0000 </r>
       <r>    23.9513     0.0000    28.0000 </r>
      </set>
     </set>
    </array>
   </total>
  </dos>
 </calculation>
 <structure name="finalpos" >
  <crystal>
   <varray name="basis" >
    <v>       3.82594981       0.00000000       0.00000000 </v>
    <v>      -0.00000000       3.82594981       0.00000000 </v>
    <v>       0.00000000       0.00000000       3.82594981 </v>
   </varray>
   <i name="volume">     56.00383995 </i>
   <varray name="rec_basis" >
    <v>       0.26137301       0.00000000      -0.00000000 </v>
    <v>       0.00000000       0.26137301       0.00000000 </v>
    <v>      -0.00000000      -0.00000000       0.26137301 </v>
   </varray>
  </crystal>
  <varray name="positions" >
   <v>       0.00000000       0.00000000       0.00000000 </v>
   <v>       0.00000000       0.50000000       0.50000000 </v>
   <v>       0.50000000       0.00000000       0.50000000 </v>
   <v>       0.50000000       0.50000000       0.00000000 </v>
  </varray>
 </structure>
</modeling>
