
12 atoms
1 atom types
   0.0000000000    4.0319999997 xlo xhi
   0.0000000000    4.5079130423 ylo yhi
   0.0000000000   25.2435179862 zlo zhi
   2.0159999998    2.0259683040    0.9015542138 xy xz yz

Atoms # atomic

     1      1    4.0414342876    1.5777426913   23.8911866655
     2      1    6.0567222657    2.4793273279   22.0880782379
     3      1    6.0577902983    3.3809068940   24.7927408793
     4      1    4.0410782767    4.2824915307   22.9896324517
     5      1    4.0400102441    3.3809119645   20.2849698104
     6      1    6.0552982222    4.2824966012   18.4818613828
     7      1    6.0563662548    5.1840761673   21.1865240241
     8      1    2.0236542334    1.5777477617   19.3834155966
     9      1    2.0225862008    0.6761681956   16.6787529552
    10      1    4.0378741789    1.5777528322   14.8756445276
    11      1    4.0389422115    2.4793323984   17.5803071690
    12      1    6.0542301896    3.3809170350   15.7771987414
