ITEM: TIMESTEP
0
ITEM: NUMBER OF ATOMS
12
ITEM: BOX BOUNDS xy xz yz pp pp pp
0.0000000000000000e+00 8.0739683034999992e+00 2.0159999998000000e+00
0.0000000000000000e+00 5.4094672561000001e+00 2.0259683040000001e+00
0.0000000000000000e+00 2.5243517986200001e+01 9.0155421380000000e-01
ITEM: ATOMS id type xs ys zs fx fy fz
9 1 0.160714 0.0178571 0.660714 -6.04236e-05 -0.0214365 -0.0951918
10 1 0.589286 0.232143 0.589286 0.00126544 0.000282208 0.362291
11 1 0.446429 0.410714 0.696429 -2.23698e-05 -0.000608714 -0.093628
8 1 0.0178571 0.196429 0.767857 1.12324e-06 0.00264273 -0.0375678
1 1 0.446429 0.160714 0.946429 -0.000792782 -0.0129702 -0.0237302
2 1 0.875 0.375 0.875 2.23698e-05 0.000608714 0.093628
12 1 0.875 0.625 0.625 0.000792782 0.0129702 0.0237302
5 1 0.303571 0.589286 0.803571 -1.12324e-06 -0.00264273 0.0375678
6 1 0.732143 0.803571 0.732143 -9.09445e-07 0.0048293 -0.0832937
7 1 0.589286 0.982143 0.839286 9.09444e-07 -0.0048293 0.0832937
3 1 0.732143 0.553571 0.982143 -0.00126544 -0.000282208 -0.362291
4 1 0.160714 0.767857 0.910714 6.04236e-05 0.0214365 0.0951918
