ITEM: TIMESTEP
0
ITEM: NUMBER OF ATOMS
4
ITEM: BOX BOUNDS xy xz yz pp pp pp
0.0000000000000000e+00 4.0570704169000003e+00 0.0000000000000000e+00
0.0000000000000000e+00 4.0369359481000000e+00 0.0000000000000000e+00
0.0000000000000000e+00 4.0369359481000000e+00 0.0000000000000000e+00
ITEM: ATOMS id type xs ys zs fx fy fz
1 1 0 0 0 2.31078e-10 2.33638e-10 2.33637e-10
2 1 0 0.5 0.5 2.31078e-10 -2.33638e-10 -2.33637e-10
3 1 0.5 0.5 0 -2.31078e-10 -2.33638e-10 2.33637e-10
4 1 0.5 0 0.5 -2.31078e-10 2.33638e-10 -2.33637e-10
ITEM: TIMESTEP
1
ITEM: NUMBER OF ATOMS
4
ITEM: BOX BOUNDS xy xz yz pp pp pp
0.0000000000000000e+00 4.0570704169000003e+00 0.0000000000000000e+00
0.0000000000000000e+00 4.0369359481000000e+00 0.0000000000000000e+00
0.0000000000000000e+00 4.0369359481000000e+00 0.0000000000000000e+00
ITEM: ATOMS id type xs ys zs fx fy fz
1 1 6.11659e-12 6.21521e-12 6.21518e-12 1.71031e-12 -8.45727e-13 -8.43019e-13
2 1 6.11659e-12 0.5 0.5 1.71038e-12 8.45644e-13 8.43105e-13
3 1 0.5 0.5 6.21518e-12 -1.71026e-12 8.45712e-13 -8.43013e-13
4 1 0.5 6.21521e-12 0.5 -1.71056e-12 -8.45607e-13 8.42943e-13
