<?xml version="1.0" encoding="ISO-8859-1"?>
<modeling>
 <generator>
  <i name="program" type="string">vasp </i>
  <i name="version" type="string">6.4.2  </i>
  <i name="subversion" type="string">20Jul23 (build Apr 22 2024 22:35:45) complex                          parallel </i>
  <i name="platform" type="string">LinuxGNU </i>
  <i name="date" type="string">2024 05 26 </i>
  <i name="time" type="string">15:54:22 </i>
 </generator>
 <incar>
  <i type="string" name="SYSTEM">Al fcc relaxation</i>
  <i type="string" name="PREC">Accurate</i>
  <i type="string" name="ALGO">Fast</i>
  <i type="int" name="NELM">    60</i>
  <i type="int" name="NELMIN">     4</i>
  <i type="int" name="IBRION">     2</i>
  <i name="EDIFF">      0.00000100</i>
  <i type="int" name="NSW">   100</i>
  <i type="int" name="ISIF">     4</i>
  <i name="ENCUT">    400.00000000</i>
  <i type="string" name="LREAL">Auto</i>
  <i type="int" name="ISMEAR">     1</i>
  <i name="SIGMA">      0.20000000</i>
  <i name="KSPACING">      0.08000000</i>
  <i type="logical" name="LWAVE"> F  </i>
  <i type="logical" name="LCHARG"> F  </i>
 </incar>
 <primitive_cell>
  <structure name="primitive_cell" >
   <crystal>
    <varray name="basis" >
     <v>       2.11577222      -2.11577222       0.00000000 </v>
     <v>       2.11577222       0.00000000       2.11577222 </v>
     <v>       0.00000000      -2.11577222       2.11577222 </v>
    </varray>
    <i name="volume">     18.94247528 </i>
    <varray name="rec_basis" >
     <v>       0.23632033      -0.23632033      -0.23632033 </v>
     <v>       0.23632033       0.23632033       0.23632033 </v>
     <v>      -0.23632033      -0.23632033       0.23632033 </v>
    </varray>
   </crystal>
   <varray name="positions" >
    <v>       0.00000000       0.00000000       0.00000000 </v>
   </varray>
  </structure>
  <varray name="primitive_index" >
   <v type="int" >        1 </v>
  </varray>
 </primitive_cell>
 <kpoints>
  <generation param="Monkhorst-Pack">
   <v type="int" name="divisions">      19       19       19 </v>
   <v name="usershift">      0.00000000       0.00000000       0.00000000 </v>
   <v name="genvec1">      0.05263158      -0.00000000       0.00000000 </v>
   <v name="genvec2">      0.00000000       0.05263158       0.00000000 </v>
   <v name="genvec3">      0.00000000       0.00000000       0.05263158 </v>
   <v name="shift">      0.00000000       0.00000000       0.00000000 </v>
  </generation>
  <varray name="kpointlist" >
   <v>       0.00000000       0.00000000       0.00000000 </v>
   <v>       0.05263158       0.00000000       0.00000000 </v>
   <v>       0.10526316       0.00000000       0.00000000 </v>
   <v>       0.15789474       0.00000000       0.00000000 </v>
   <v>       0.21052632       0.00000000       0.00000000 </v>
   <v>       0.26315789       0.00000000       0.00000000 </v>
   <v>       0.31578947       0.00000000       0.00000000 </v>
   <v>       0.36842105       0.00000000       0.00000000 </v>
   <v>       0.42105263       0.00000000       0.00000000 </v>
   <v>       0.47368421       0.00000000       0.00000000 </v>
   <v>       0.05263158       0.05263158       0.00000000 </v>
   <v>       0.10526316       0.05263158       0.00000000 </v>
   <v>       0.15789474       0.05263158       0.00000000 </v>
   <v>       0.21052632       0.05263158       0.00000000 </v>
   <v>       0.26315789       0.05263158       0.00000000 </v>
   <v>       0.31578947       0.05263158       0.00000000 </v>
   <v>       0.36842105       0.05263158       0.00000000 </v>
   <v>       0.42105263       0.05263158       0.00000000 </v>
   <v>       0.47368421       0.05263158       0.00000000 </v>
   <v>       0.10526316       0.10526316       0.00000000 </v>
   <v>       0.15789474       0.10526316       0.00000000 </v>
   <v>       0.21052632       0.10526316       0.00000000 </v>
   <v>       0.26315789       0.10526316       0.00000000 </v>
   <v>       0.31578947       0.10526316       0.00000000 </v>
   <v>       0.36842105       0.10526316       0.00000000 </v>
   <v>       0.42105263       0.10526316       0.00000000 </v>
   <v>       0.47368421       0.10526316       0.00000000 </v>
   <v>       0.15789474       0.15789474       0.00000000 </v>
   <v>       0.21052632       0.15789474       0.00000000 </v>
   <v>       0.26315789       0.15789474       0.00000000 </v>
   <v>       0.31578947       0.15789474       0.00000000 </v>
   <v>       0.36842105       0.15789474       0.00000000 </v>
   <v>       0.42105263       0.15789474       0.00000000 </v>
   <v>       0.47368421       0.15789474       0.00000000 </v>
   <v>       0.21052632       0.21052632       0.00000000 </v>
   <v>       0.26315789       0.21052632       0.00000000 </v>
   <v>       0.31578947       0.21052632       0.00000000 </v>
   <v>       0.36842105       0.21052632       0.00000000 </v>
   <v>       0.42105263       0.21052632       0.00000000 </v>
   <v>       0.47368421       0.21052632       0.00000000 </v>
   <v>       0.26315789       0.26315789       0.00000000 </v>
   <v>       0.31578947       0.26315789       0.00000000 </v>
   <v>       0.36842105       0.26315789       0.00000000 </v>
   <v>       0.42105263       0.26315789       0.00000000 </v>
   <v>       0.47368421       0.26315789       0.00000000 </v>
   <v>       0.31578947       0.31578947       0.00000000 </v>
   <v>       0.36842105       0.31578947       0.00000000 </v>
   <v>       0.42105263       0.31578947       0.00000000 </v>
   <v>       0.47368421       0.31578947       0.00000000 </v>
   <v>       0.36842105       0.36842105       0.00000000 </v>
   <v>       0.42105263       0.36842105       0.00000000 </v>
   <v>       0.47368421       0.36842105       0.00000000 </v>
   <v>       0.42105263       0.42105263       0.00000000 </v>
   <v>       0.47368421       0.42105263       0.00000000 </v>
   <v>       0.47368421       0.47368421       0.00000000 </v>
   <v>       0.05263158       0.05263158       0.05263158 </v>
   <v>       0.10526316       0.05263158       0.05263158 </v>
   <v>       0.15789474       0.05263158       0.05263158 </v>
   <v>       0.21052632       0.05263158       0.05263158 </v>
   <v>       0.26315789       0.05263158       0.05263158 </v>
   <v>       0.31578947       0.05263158       0.05263158 </v>
   <v>       0.36842105       0.05263158       0.05263158 </v>
   <v>       0.42105263       0.05263158       0.05263158 </v>
   <v>       0.47368421       0.05263158       0.05263158 </v>
   <v>       0.10526316       0.10526316       0.05263158 </v>
   <v>       0.15789474       0.10526316       0.05263158 </v>
   <v>       0.21052632       0.10526316       0.05263158 </v>
   <v>       0.26315789       0.10526316       0.05263158 </v>
   <v>       0.31578947       0.10526316       0.05263158 </v>
   <v>       0.36842105       0.10526316       0.05263158 </v>
   <v>       0.42105263       0.10526316       0.05263158 </v>
   <v>       0.47368421       0.10526316       0.05263158 </v>
   <v>       0.15789474       0.15789474       0.05263158 </v>
   <v>       0.21052632       0.15789474       0.05263158 </v>
   <v>       0.26315789       0.15789474       0.05263158 </v>
   <v>       0.31578947       0.15789474       0.05263158 </v>
   <v>       0.36842105       0.15789474       0.05263158 </v>
   <v>       0.42105263       0.15789474       0.05263158 </v>
   <v>       0.47368421       0.15789474       0.05263158 </v>
   <v>       0.21052632       0.21052632       0.05263158 </v>
   <v>       0.26315789       0.21052632       0.05263158 </v>
   <v>       0.31578947       0.21052632       0.05263158 </v>
   <v>       0.36842105       0.21052632       0.05263158 </v>
   <v>       0.42105263       0.21052632       0.05263158 </v>
   <v>       0.47368421       0.21052632       0.05263158 </v>
   <v>       0.26315789       0.26315789       0.05263158 </v>
   <v>       0.31578947       0.26315789       0.05263158 </v>
   <v>       0.36842105       0.26315789       0.05263158 </v>
   <v>       0.42105263       0.26315789       0.05263158 </v>
   <v>       0.47368421       0.26315789       0.05263158 </v>
   <v>       0.31578947       0.31578947       0.05263158 </v>
   <v>       0.36842105       0.31578947       0.05263158 </v>
   <v>       0.42105263       0.31578947       0.05263158 </v>
   <v>       0.47368421       0.31578947       0.05263158 </v>
   <v>       0.36842105       0.36842105       0.05263158 </v>
   <v>       0.42105263       0.36842105       0.05263158 </v>
   <v>       0.47368421       0.36842105       0.05263158 </v>
   <v>       0.42105263       0.42105263       0.05263158 </v>
   <v>       0.47368421       0.42105263       0.05263158 </v>
   <v>       0.47368421       0.47368421       0.05263158 </v>
   <v>       0.10526316       0.10526316       0.10526316 </v>
   <v>       0.15789474       0.10526316       0.10526316 </v>
   <v>       0.21052632       0.10526316       0.10526316 </v>
   <v>       0.26315789       0.10526316       0.10526316 </v>
   <v>       0.31578947       0.10526316       0.10526316 </v>
   <v>       0.36842105       0.10526316       0.10526316 </v>
   <v>       0.42105263       0.10526316       0.10526316 </v>
   <v>       0.47368421       0.10526316       0.10526316 </v>
   <v>       0.15789474       0.15789474       0.10526316 </v>
   <v>       0.21052632       0.15789474       0.10526316 </v>
   <v>       0.26315789       0.15789474       0.10526316 </v>
   <v>       0.31578947       0.15789474       0.10526316 </v>
   <v>       0.36842105       0.15789474       0.10526316 </v>
   <v>       0.42105263       0.15789474       0.10526316 </v>
   <v>       0.47368421       0.15789474       0.10526316 </v>
   <v>       0.21052632       0.21052632       0.10526316 </v>
   <v>       0.26315789       0.21052632       0.10526316 </v>
   <v>       0.31578947       0.21052632       0.10526316 </v>
   <v>       0.36842105       0.21052632       0.10526316 </v>
   <v>       0.42105263       0.21052632       0.10526316 </v>
   <v>       0.47368421       0.21052632       0.10526316 </v>
   <v>       0.26315789       0.26315789       0.10526316 </v>
   <v>       0.31578947       0.26315789       0.10526316 </v>
   <v>       0.36842105       0.26315789       0.10526316 </v>
   <v>       0.42105263       0.26315789       0.10526316 </v>
   <v>       0.47368421       0.26315789       0.10526316 </v>
   <v>       0.31578947       0.31578947       0.10526316 </v>
   <v>       0.36842105       0.31578947       0.10526316 </v>
   <v>       0.42105263       0.31578947       0.10526316 </v>
   <v>       0.47368421       0.31578947       0.10526316 </v>
   <v>       0.36842105       0.36842105       0.10526316 </v>
   <v>       0.42105263       0.36842105       0.10526316 </v>
   <v>       0.47368421       0.36842105       0.10526316 </v>
   <v>       0.42105263       0.42105263       0.10526316 </v>
   <v>       0.47368421       0.42105263       0.10526316 </v>
   <v>       0.47368421       0.47368421       0.10526316 </v>
   <v>       0.15789474       0.15789474       0.15789474 </v>
   <v>       0.21052632       0.15789474       0.15789474 </v>
   <v>       0.26315789       0.15789474       0.15789474 </v>
   <v>       0.31578947       0.15789474       0.15789474 </v>
   <v>       0.36842105       0.15789474       0.15789474 </v>
   <v>       0.42105263       0.15789474       0.15789474 </v>
   <v>       0.47368421       0.15789474       0.15789474 </v>
   <v>       0.21052632       0.21052632       0.15789474 </v>
   <v>       0.26315789       0.21052632       0.15789474 </v>
   <v>       0.31578947       0.21052632       0.15789474 </v>
   <v>       0.36842105       0.21052632       0.15789474 </v>
   <v>       0.42105263       0.21052632       0.15789474 </v>
   <v>       0.47368421       0.21052632       0.15789474 </v>
   <v>       0.26315789       0.26315789       0.15789474 </v>
   <v>       0.31578947       0.26315789       0.15789474 </v>
   <v>       0.36842105       0.26315789       0.15789474 </v>
   <v>       0.42105263       0.26315789       0.15789474 </v>
   <v>       0.47368421       0.26315789       0.15789474 </v>
   <v>       0.31578947       0.31578947       0.15789474 </v>
   <v>       0.36842105       0.31578947       0.15789474 </v>
   <v>       0.42105263       0.31578947       0.15789474 </v>
   <v>       0.47368421       0.31578947       0.15789474 </v>
   <v>       0.36842105       0.36842105       0.15789474 </v>
   <v>       0.42105263       0.36842105       0.15789474 </v>
   <v>       0.47368421       0.36842105       0.15789474 </v>
   <v>       0.42105263       0.42105263       0.15789474 </v>
   <v>       0.47368421       0.42105263       0.15789474 </v>
   <v>       0.47368421       0.47368421       0.15789474 </v>
   <v>       0.21052632       0.21052632       0.21052632 </v>
   <v>       0.26315789       0.21052632       0.21052632 </v>
   <v>       0.31578947       0.21052632       0.21052632 </v>
   <v>       0.36842105       0.21052632       0.21052632 </v>
   <v>       0.42105263       0.21052632       0.21052632 </v>
   <v>       0.47368421       0.21052632       0.21052632 </v>
   <v>       0.26315789       0.26315789       0.21052632 </v>
   <v>       0.31578947       0.26315789       0.21052632 </v>
   <v>       0.36842105       0.26315789       0.21052632 </v>
   <v>       0.42105263       0.26315789       0.21052632 </v>
   <v>       0.47368421       0.26315789       0.21052632 </v>
   <v>       0.31578947       0.31578947       0.21052632 </v>
   <v>       0.36842105       0.31578947       0.21052632 </v>
   <v>       0.42105263       0.31578947       0.21052632 </v>
   <v>       0.47368421       0.31578947       0.21052632 </v>
   <v>       0.36842105       0.36842105       0.21052632 </v>
   <v>       0.42105263       0.36842105       0.21052632 </v>
   <v>       0.47368421       0.36842105       0.21052632 </v>
   <v>       0.42105263       0.42105263       0.21052632 </v>
   <v>       0.47368421       0.42105263       0.21052632 </v>
   <v>       0.47368421       0.47368421       0.21052632 </v>
   <v>       0.26315789       0.26315789       0.26315789 </v>
   <v>       0.31578947       0.26315789       0.26315789 </v>
   <v>       0.36842105       0.26315789       0.26315789 </v>
   <v>       0.42105263       0.26315789       0.26315789 </v>
   <v>       0.47368421       0.26315789       0.26315789 </v>
   <v>       0.31578947       0.31578947       0.26315789 </v>
   <v>       0.36842105       0.31578947       0.26315789 </v>
   <v>       0.42105263       0.31578947       0.26315789 </v>
   <v>       0.47368421       0.31578947       0.26315789 </v>
   <v>       0.36842105       0.36842105       0.26315789 </v>
   <v>       0.42105263       0.36842105       0.26315789 </v>
   <v>       0.47368421       0.36842105       0.26315789 </v>
   <v>       0.42105263       0.42105263       0.26315789 </v>
   <v>       0.47368421       0.42105263       0.26315789 </v>
   <v>       0.47368421       0.47368421       0.26315789 </v>
   <v>       0.31578947       0.31578947       0.31578947 </v>
   <v>       0.36842105       0.31578947       0.31578947 </v>
   <v>       0.42105263       0.31578947       0.31578947 </v>
   <v>       0.47368421       0.31578947       0.31578947 </v>
   <v>       0.36842105       0.36842105       0.31578947 </v>
   <v>       0.42105263       0.36842105       0.31578947 </v>
   <v>       0.47368421       0.36842105       0.31578947 </v>
   <v>       0.42105263       0.42105263       0.31578947 </v>
   <v>       0.47368421       0.42105263       0.31578947 </v>
   <v>       0.47368421       0.47368421       0.31578947 </v>
   <v>       0.36842105       0.36842105       0.36842105 </v>
   <v>       0.42105263       0.36842105       0.36842105 </v>
   <v>       0.47368421       0.36842105       0.36842105 </v>
   <v>       0.42105263       0.42105263       0.36842105 </v>
   <v>       0.47368421       0.42105263       0.36842105 </v>
   <v>       0.47368421       0.47368421       0.36842105 </v>
   <v>       0.42105263       0.42105263       0.42105263 </v>
   <v>       0.47368421       0.42105263       0.42105263 </v>
   <v>       0.47368421       0.47368421       0.42105263 </v>
   <v>       0.47368421       0.47368421       0.47368421 </v>
  </varray>
  <varray name="weights" >
   <v>       0.00014579 </v>
   <v>       0.00087476 </v>
   <v>       0.00087476 </v>
   <v>       0.00087476 </v>
   <v>       0.00087476 </v>
   <v>       0.00087476 </v>
   <v>       0.00087476 </v>
   <v>       0.00087476 </v>
   <v>       0.00087476 </v>
   <v>       0.00087476 </v>
   <v>       0.00174953 </v>
   <v>       0.00349905 </v>
   <v>       0.00349905 </v>
   <v>       0.00349905 </v>
   <v>       0.00349905 </v>
   <v>       0.00349905 </v>
   <v>       0.00349905 </v>
   <v>       0.00349905 </v>
   <v>       0.00349905 </v>
   <v>       0.00174953 </v>
   <v>       0.00349905 </v>
   <v>       0.00349905 </v>
   <v>       0.00349905 </v>
   <v>       0.00349905 </v>
   <v>       0.00349905 </v>
   <v>       0.00349905 </v>
   <v>       0.00349905 </v>
   <v>       0.00174953 </v>
   <v>       0.00349905 </v>
   <v>       0.00349905 </v>
   <v>       0.00349905 </v>
   <v>       0.00349905 </v>
   <v>       0.00349905 </v>
   <v>       0.00349905 </v>
   <v>       0.00174953 </v>
   <v>       0.00349905 </v>
   <v>       0.00349905 </v>
   <v>       0.00349905 </v>
   <v>       0.00349905 </v>
   <v>       0.00349905 </v>
   <v>       0.00174953 </v>
   <v>       0.00349905 </v>
   <v>       0.00349905 </v>
   <v>       0.00349905 </v>
   <v>       0.00349905 </v>
   <v>       0.00174953 </v>
   <v>       0.00349905 </v>
   <v>       0.00349905 </v>
   <v>       0.00349905 </v>
   <v>       0.00174953 </v>
   <v>       0.00349905 </v>
   <v>       0.00349905 </v>
   <v>       0.00174953 </v>
   <v>       0.00349905 </v>
   <v>       0.00174953 </v>
   <v>       0.00116635 </v>
   <v>       0.00349905 </v>
   <v>       0.00349905 </v>
   <v>       0.00349905 </v>
   <v>       0.00349905 </v>
   <v>       0.00349905 </v>
   <v>       0.00349905 </v>
   <v>       0.00349905 </v>
   <v>       0.00349905 </v>
   <v>       0.00349905 </v>
   <v>       0.00699810 </v>
   <v>       0.00699810 </v>
   <v>       0.00699810 </v>
   <v>       0.00699810 </v>
   <v>       0.00699810 </v>
   <v>       0.00699810 </v>
   <v>       0.00699810 </v>
   <v>       0.00349905 </v>
   <v>       0.00699810 </v>
   <v>       0.00699810 </v>
   <v>       0.00699810 </v>
   <v>       0.00699810 </v>
   <v>       0.00699810 </v>
   <v>       0.00699810 </v>
   <v>       0.00349905 </v>
   <v>       0.00699810 </v>
   <v>       0.00699810 </v>
   <v>       0.00699810 </v>
   <v>       0.00699810 </v>
   <v>       0.00699810 </v>
   <v>       0.00349905 </v>
   <v>       0.00699810 </v>
   <v>       0.00699810 </v>
   <v>       0.00699810 </v>
   <v>       0.00699810 </v>
   <v>       0.00349905 </v>
   <v>       0.00699810 </v>
   <v>       0.00699810 </v>
   <v>       0.00699810 </v>
   <v>       0.00349905 </v>
   <v>       0.00699810 </v>
   <v>       0.00699810 </v>
   <v>       0.00349905 </v>
   <v>       0.00699810 </v>
   <v>       0.00349905 </v>
   <v>       0.00116635 </v>
   <v>       0.00349905 </v>
   <v>       0.00349905 </v>
   <v>       0.00349905 </v>
   <v>       0.00349905 </v>
   <v>       0.00349905 </v>
   <v>       0.00349905 </v>
   <v>       0.00349905 </v>
   <v>       0.00349905 </v>
   <v>       0.00699810 </v>
   <v>       0.00699810 </v>
   <v>       0.00699810 </v>
   <v>       0.00699810 </v>
   <v>       0.00699810 </v>
   <v>       0.00699810 </v>
   <v>       0.00349905 </v>
   <v>       0.00699810 </v>
   <v>       0.00699810 </v>
   <v>       0.00699810 </v>
   <v>       0.00699810 </v>
   <v>       0.00699810 </v>
   <v>       0.00349905 </v>
   <v>       0.00699810 </v>
   <v>       0.00699810 </v>
   <v>       0.00699810 </v>
   <v>       0.00699810 </v>
   <v>       0.00349905 </v>
   <v>       0.00699810 </v>
   <v>       0.00699810 </v>
   <v>       0.00699810 </v>
   <v>       0.00349905 </v>
   <v>       0.00699810 </v>
   <v>       0.00699810 </v>
   <v>       0.00349905 </v>
   <v>       0.00699810 </v>
   <v>       0.00349905 </v>
   <v>       0.00116635 </v>
   <v>       0.00349905 </v>
   <v>       0.00349905 </v>
   <v>       0.00349905 </v>
   <v>       0.00349905 </v>
   <v>       0.00349905 </v>
   <v>       0.00349905 </v>
   <v>       0.00349905 </v>
   <v>       0.00699810 </v>
   <v>       0.00699810 </v>
   <v>       0.00699810 </v>
   <v>       0.00699810 </v>
   <v>       0.00699810 </v>
   <v>       0.00349905 </v>
   <v>       0.00699810 </v>
   <v>       0.00699810 </v>
   <v>       0.00699810 </v>
   <v>       0.00699810 </v>
   <v>       0.00349905 </v>
   <v>       0.00699810 </v>
   <v>       0.00699810 </v>
   <v>       0.00699810 </v>
   <v>       0.00349905 </v>
   <v>       0.00699810 </v>
   <v>       0.00699810 </v>
   <v>       0.00349905 </v>
   <v>       0.00699810 </v>
   <v>       0.00349905 </v>
   <v>       0.00116635 </v>
   <v>       0.00349905 </v>
   <v>       0.00349905 </v>
   <v>       0.00349905 </v>
   <v>       0.00349905 </v>
   <v>       0.00349905 </v>
   <v>       0.00349905 </v>
   <v>       0.00699810 </v>
   <v>       0.00699810 </v>
   <v>       0.00699810 </v>
   <v>       0.00699810 </v>
   <v>       0.00349905 </v>
   <v>       0.00699810 </v>
   <v>       0.00699810 </v>
   <v>       0.00699810 </v>
   <v>       0.00349905 </v>
   <v>       0.00699810 </v>
   <v>       0.00699810 </v>
   <v>       0.00349905 </v>
   <v>       0.00699810 </v>
   <v>       0.00349905 </v>
   <v>       0.00116635 </v>
   <v>       0.00349905 </v>
   <v>       0.00349905 </v>
   <v>       0.00349905 </v>
   <v>       0.00349905 </v>
   <v>       0.00349905 </v>
   <v>       0.00699810 </v>
   <v>       0.00699810 </v>
   <v>       0.00699810 </v>
   <v>       0.00349905 </v>
   <v>       0.00699810 </v>
   <v>       0.00699810 </v>
   <v>       0.00349905 </v>
   <v>       0.00699810 </v>
   <v>       0.00349905 </v>
   <v>       0.00116635 </v>
   <v>       0.00349905 </v>
   <v>       0.00349905 </v>
   <v>       0.00349905 </v>
   <v>       0.00349905 </v>
   <v>       0.00699810 </v>
   <v>       0.00699810 </v>
   <v>       0.00349905 </v>
   <v>       0.00699810 </v>
   <v>       0.00349905 </v>
   <v>       0.00116635 </v>
   <v>       0.00349905 </v>
   <v>       0.00349905 </v>
   <v>       0.00349905 </v>
   <v>       0.00699810 </v>
   <v>       0.00349905 </v>
   <v>       0.00116635 </v>
   <v>       0.00349905 </v>
   <v>       0.00349905 </v>
   <v>       0.00116635 </v>
  </varray>
 </kpoints>
 <parameters>
  <separator name="general" >
   <i type="string" name="SYSTEM">Al fcc relaxation</i>
   <i type="logical" name="LCOMPAT"> F  </i>
  </separator>
  <separator name="electronic" >
   <i type="string" name="PREC">accura</i>
   <i name="ENMAX">    400.00000000</i>
   <i name="ENAUG">    291.05200000</i>
   <i name="EDIFF">      0.00000100</i>
   <i type="int" name="IALGO">    68</i>
   <i type="int" name="IWAVPR">    11</i>
   <i type="int" name="NBANDS">    14</i>
   <i type="int" name="NBANDSLOW">    -1</i>
   <i type="int" name="NBANDSHIGH">    -1</i>
   <i name="NELECT">     12.00000000</i>
   <i type="int" name="TURBO">     0</i>
   <i type="int" name="IRESTART">     0</i>
   <i type="int" name="NREBOOT">     0</i>
   <i type="int" name="NMIN">     0</i>
   <i name="EREF">      0.00000000</i>
   <separator name="electronic smearing" >
    <i type="int" name="ISMEAR">     1</i>
    <i name="SIGMA">      0.20000000</i>
    <i name="KSPACING">      0.08000000</i>
    <i type="logical" name="KGAMMA"> T  </i>
    <i type="logical" name="KBLOWUP"> T  </i>
   </separator>
   <separator name="electronic projectors" >
    <i type="logical" name="LREAL"> T  </i>
    <v name="ROPT">     -0.00025000</v>
    <i type="int" name="LMAXPAW">  -100</i>
    <i type="int" name="LMAXMIX">     2</i>
    <i type="logical" name="NLSPLINE"> F  </i>
   </separator>
   <separator name="electronic startup" >
    <i type="int" name="ISTART">     0</i>
    <i type="int" name="ICHARG">     2</i>
    <i type="int" name="INIWAV">     1</i>
   </separator>
   <separator name="electronic spin" >
    <i type="int" name="ISPIN">     1</i>
    <i type="logical" name="LNONCOLLINEAR"> F  </i>
    <v name="MAGMOM">      1.00000000      1.00000000      1.00000000      1.00000000</v>
    <i name="NUPDOWN">     -1.00000000</i>
    <i type="logical" name="LSORBIT"> F  </i>
    <v name="SAXIS">      0.00000000      0.00000000      1.00000000</v>
    <i type="logical" name="LSPIRAL"> F  </i>
    <v name="QSPIRAL">      0.00000000      0.00000000      0.00000000</v>
    <i type="logical" name="LZEROZ"> F  </i>
   </separator>
   <separator name="electronic exchange-correlation" >
    <i type="logical" name="LASPH"> F  </i>
    <i type="logical" name="LMETAGGA"> F  </i>
   </separator>
   <separator name="electronic convergence" >
    <i type="int" name="NELM">    60</i>
    <i type="int" name="NELMDL">    -5</i>
    <i type="int" name="NELMIN">     4</i>
    <i name="ENINI">    400.00000000</i>
    <separator name="electronic convergence detail" >
     <i type="logical" name="LDIAG"> T  </i>
     <i type="logical" name="LSUBROT"> F  </i>
     <i name="WEIMIN">      0.00100000</i>
     <i name="EBREAK">      0.00000002</i>
     <i name="DEPER">      0.30000000</i>
     <i type="int" name="NRMM">     4</i>
     <i name="TIME">      0.40000000</i>
    </separator>
   </separator>
   <separator name="electronic mixer" >
    <i name="AMIX">      0.40000000</i>
    <i name="BMIX">      1.00000000</i>
    <i name="AMIN">      0.10000000</i>
    <i name="AMIX_MAG">      1.60000000</i>
    <i name="BMIX_MAG">      1.00000000</i>
    <separator name="electronic mixer details" >
     <i type="int" name="IMIX">     4</i>
     <i type="logical" name="MIXFIRST"> F  </i>
     <i type="int" name="MAXMIX">   -45</i>
     <i name="WC">    100.00000000</i>
     <i type="int" name="INIMIX">     1</i>
     <i type="int" name="MIXPRE">     1</i>
     <i type="int" name="MREMOVE">     5</i>
    </separator>
   </separator>
   <separator name="electronic dipolcorrection" >
    <i type="logical" name="LDIPOL"> F  </i>
    <i type="logical" name="LMONO"> F  </i>
    <i type="int" name="IDIPOL">     0</i>
    <i name="EPSILON">      1.00000000</i>
    <v name="DIPOL">   -100.00000000   -100.00000000   -100.00000000</v>
    <i name="EFIELD">      0.00000000</i>
   </separator>
  </separator>
  <separator name="grids" >
   <i type="int" name="NGX">    28</i>
   <i type="int" name="NGY">    28</i>
   <i type="int" name="NGZ">    28</i>
   <i type="int" name="NGXF">    56</i>
   <i type="int" name="NGYF">    56</i>
   <i type="int" name="NGZF">    56</i>
   <i type="logical" name="ADDGRID"> F  </i>
  </separator>
  <separator name="ionic" >
   <i type="int" name="NSW">   100</i>
   <i type="int" name="IBRION">     2</i>
   <i type="int" name="MDALGO">     0</i>
   <i type="int" name="ISIF">     4</i>
   <i name="PSTRESS">      0.00000000</i>
   <i name="EDIFFG">      0.00001000</i>
   <i type="int" name="NFREE">     1</i>
   <i name="POTIM">      0.50000000</i>
   <i name="SMASS">     -3.00000000</i>
   <i name="SCALEE">      1.00000000</i>
  </separator>
  <separator name="ionic md" >
   <i name="TEBEG">      0.00010000</i>
   <i name="TEEND">      0.00010000</i>
   <i type="int" name="NBLOCK">     1</i>
   <i type="int" name="KBLOCK">   100</i>
   <i type="int" name="NPACO">   256</i>
   <i name="APACO">     10.00000000</i>
  </separator>
  <separator name="symmetry" >
   <i type="int" name="ISYM">     2</i>
   <i name="SYMPREC">      0.00001000</i>
  </separator>
  <separator name="dos" >
   <i type="int" name="LORBIT">     0</i>
   <v name="RWIGS">     -1.00000000</v>
   <i type="int" name="NEDOS">   301</i>
   <i name="EMIN">     10.00000000</i>
   <i name="EMAX">    -10.00000000</i>
   <i name="EFERMI">      0.00000000</i>
  </separator>
  <separator name="writing" >
   <i type="int" name="NWRITE">     2</i>
   <i type="logical" name="LWAVE"> F  </i>
   <i type="logical" name="LDOWNSAMPLE"> F  </i>
   <i type="logical" name="LCHARG"> F  </i>
   <i type="logical" name="LPARD"> F  </i>
   <i type="logical" name="LVTOT"> F  </i>
   <i type="logical" name="LVHAR"> F  </i>
   <i type="logical" name="LELF"> F  </i>
   <i type="logical" name="LOPTICS"> F  </i>
   <v name="STM">      0.00000000      0.00000000      0.00000000      0.00000000      0.00000000      0.00000000      0.00000000</v>
  </separator>
  <separator name="performance" >
   <i type="int" name="NPAR">    14</i>
   <i type="int" name="NSIM">     4</i>
   <i type="int" name="NBLK">    -1</i>
   <i type="logical" name="LPLANE"> T  </i>
   <i type="logical" name="LSCALAPACK"> T  </i>
   <i type="logical" name="LSCAAWARE"> F  </i>
   <i type="logical" name="LSCALU"> F  </i>
   <i type="logical" name="LASYNC"> F  </i>
   <i type="logical" name="LORBITALREAL"> F  </i>
  </separator>
  <separator name="miscellaneous" >
   <i type="int" name="IDIOT">     3</i>
   <i type="int" name="PHON_NSTRUCT">    -1</i>
   <i type="logical" name="LMUSIC"> F  </i>
   <v name="POMASS">     26.98100000</v>
   <v name="DARWINR">      0.00000000</v>
   <v name="DARWINV">      1.00000000</v>
   <i type="logical" name="LCORR"> T  </i>
  </separator>
  <i type="logical" name="GGA_COMPAT"> T  </i>
  <i type="logical" name="LBERRY"> F  </i>
  <i type="int" name="ICORELEVEL">     0</i>
  <i type="logical" name="LDAU"> F  </i>
  <i type="int" name="I_CONSTRAINED_M">     0</i>
  <separator name="electronic exchange-correlation" >
   <i type="string" name="GGA">--</i>
   <i type="int" name="VOSKOWN">     0</i>
   <i type="logical" name="LHFCALC"> F  </i>
   <i type="string" name="PRECFOCK"></i>
   <i type="logical" name="LSYMGRAD"> F  </i>
   <i type="logical" name="LHFONE"> F  </i>
   <i type="logical" name="LRHFCALC"> F  </i>
   <i type="logical" name="LTHOMAS"> F  </i>
   <i type="logical" name="LMODELHF"> F  </i>
   <i type="logical" name="LFOCKACE"> F  </i>
   <i name="ENCUT4O">     -1.00000000</i>
   <i type="int" name="EXXOEP">     0</i>
   <i type="int" name="FOURORBIT">     0</i>
   <i name="AEXX">      0.00000000</i>
   <i name="HFALPHA">      0.00000000</i>
   <i name="MCALPHA">      0.00000000</i>
   <i name="ALDAX">      1.00000000</i>
   <i name="AGGAX">      1.00000000</i>
   <i name="ALDAC">      1.00000000</i>
   <i name="AGGAC">      1.00000000</i>
   <i type="int" name="NKREDX">     1</i>
   <i type="int" name="NKREDY">     1</i>
   <i type="int" name="NKREDZ">     1</i>
   <i type="logical" name="SHIFTRED"> F  </i>
   <i type="logical" name="ODDONLY"> F  </i>
   <i type="logical" name="EVENONLY"> F  </i>
   <i type="int" name="LMAXFOCK">     0</i>
   <i type="int" name="NMAXFOCKAE">     0</i>
   <i type="logical" name="LFOCKAEDFT"> F  </i>
   <i name="HFSCREEN">      0.00000000</i>
   <i name="HFSCREENC">      0.00000000</i>
   <i type="int" name="NBANDSGWLOW">     0</i>
  </separator>
  <separator name="vdW DFT" >
   <i type="logical" name="LUSE_VDW"> F  </i>
   <i type="int" name="IVDW_NL">     1</i>
   <i type="logical" name="LSPIN_VDW"> F  </i>
   <i name="Zab_VDW">     -0.84910000</i>
   <i name="PARAM1">      0.12340000</i>
   <i name="PARAM2">      1.00000000</i>
   <i name="PARAM3">      0.00000000</i>
  </separator>
  <separator name="model GW" >
   <i type="int" name="MODEL_GW">     0</i>
   <i name="MODEL_EPS0">     11.36548517</i>
   <i name="MODEL_ALPHA">      1.00000000</i>
  </separator>
  <separator name="linear response parameters" >
   <i type="logical" name="LEPSILON"> F  </i>
   <i type="logical" name="LRPA"> F  </i>
   <i type="logical" name="LNABLA"> F  </i>
   <i type="logical" name="LVEL"> F  </i>
   <i name="CSHIFT">      0.10000000</i>
   <i name="OMEGAMAX">     -1.00000000</i>
   <i name="DEG_THRESHOLD">      0.00200000</i>
   <i name="RTIME">     -0.10000000</i>
   <i name="WPLASMAI">      0.00000000</i>
   <v name="DFIELD">      0.00000000      0.00000000      0.00000000</v>
   <v name="WPLASMA">      0.00000000      0.00000000      0.00000000      0.00000000      0.00000000      0.00000000      0.00000000      0.00000000      0.00000000</v>
  </separator>
  <separator name="orbital magnetization" >
   <i type="logical" name="NUCIND"> F  </i>
   <v name="MAGPOS">      0.00000000      0.00000000      0.00000000</v>
   <i type="logical" name="LNICSALL"> T  </i>
   <i type="logical" name="ORBITALMAG"> F  </i>
   <i type="logical" name="LMAGBLOCH"> F  </i>
   <i type="logical" name="LCHIMAG"> F  </i>
   <i type="logical" name="LGAUGE"> T  </i>
   <i type="int" name="MAGATOM">     0</i>
   <v name="MAGDIPOL">      0.00000000      0.00000000      0.00000000</v>
   <v name="AVECCONST">      0.00000000      0.00000000      0.00000000</v>
  </separator>
  <separator name="response functions" >
   <i type="logical" name="LALL_IN_ONE"> F  </i>
   <i type="int" name="IALL_IN_ONE">    -1</i>
   <i type="int" name="NBANDS_WAVE">    -1</i>
   <i type="logical" name="LFINITE_TEMPERATURE"> F  </i>
   <i type="logical" name="LADDER"> F  </i>
   <i type="logical" name="LRPAFORCE"> F  </i>
   <i type="logical" name="LFXC"> F  </i>
   <i type="logical" name="LHARTREE"> T  </i>
   <i type="int" name="IBSE">     0</i>
   <v type="int" name="KPOINT">    -1     0     0     0</v>
   <i type="logical" name="LTCTC"> F  </i>
   <i type="logical" name="LTCTE"> F  </i>
   <i type="logical" name="LTETE"> F  </i>
   <i type="logical" name="LTRIPLET"> F  </i>
   <i type="logical" name="LFXCEPS"> F  </i>
   <i type="logical" name="LFXHEG"> F  </i>
   <i type="int" name="NATURALO">     2</i>
   <i type="logical" name="LHOLEGF"> F  </i>
   <i type="logical" name="L2ORDER"> F  </i>
   <i type="logical" name="LDMP1"> F  </i>
   <i type="logical" name="LMP2LT"> F  </i>
   <i type="logical" name="LSMP2LT"> F  </i>
   <i type="logical" name="LGWLF"> F  </i>
   <i name="ENCUTGW">     -1.60000002</i>
   <i name="ENCUTGWSOFT">     -1.60000002</i>
   <i name="ENCUTLF">     -1.00000000</i>
   <i type="logical" name="LESF_SPLINES"> F  </i>
   <i type="int" name="LMAXMP2">    -1</i>
   <i name="SCISSOR">      0.00000000</i>
   <i type="int" name="NOMEGA">     0</i>
   <i type="int" name="NOMEGAR">     0</i>
   <i type="int" name="NBANDSGW">    -1</i>
   <i type="int" name="NBANDSO">    -1</i>
   <i type="int" name="NBANDSV">    -1</i>
   <i type="int" name="NELMGW">     1</i>
   <i type="int" name="NELMHF">     1</i>
   <i type="int" name="DIM">     3</i>
   <i type="int" name="IESPILON">     4</i>
   <i type="int" name="ANTIRES">     0</i>
   <i name="OMEGAMAX">    -30.00000000</i>
   <i name="OMEGAMIN">    -30.00000000</i>
   <i name="OMEGATL">   -200.00000000</i>
   <i type="int" name="OMEGAGRID">     0</i>
   <i name="CSHIFT">     -0.10000000</i>
   <i type="logical" name="LSELFENERGY"> F  </i>
   <i type="logical" name="LSPECTRAL"> F  </i>
   <i type="logical" name="LSPECTRALGW"> F  </i>
   <i type="logical" name="LSINGLES"> F  </i>
   <i type="logical" name="LFERMIGW"> F  </i>
   <i type="logical" name="ODDONLYGW"> F  </i>
   <i type="logical" name="EVENONLYGW"> F  </i>
   <i type="int" name="NKREDLFX">     1</i>
   <i type="int" name="NKREDLFY">     1</i>
   <i type="int" name="NKREDLFZ">     1</i>
   <i type="int" name="MAXMEM">  2800</i>
   <i type="int" name="TELESCOPE">     0</i>
   <i type="int" name="NTAUPAR">    -1</i>
   <i type="int" name="NOMEGAPAR">    -1</i>
   <i name="DAMP_NEWTON">      0.80000001</i>
   <i name="LAMBDA">      1.00000000</i>
  </separator>
  <separator name="External order field" >
   <i name="OFIELD_KAPPA">      0.00000000</i>
   <v name="OFIELD_K">      0.00000000      0.00000000      0.00000000</v>
   <i name="OFIELD_Q6_NEAR">      0.00000000</i>
   <i name="OFIELD_Q6_FAR">      0.00000000</i>
   <i name="OFIELD_A">      0.00000000</i>
  </separator>
  <separator name="optional k-points parameters" >
   <i type="int" name="KPOINTS_OPT_MODE">     1</i>
   <i type="logical" name="LKPOINTS_OPT"> F  </i>
  </separator>
 </parameters>
 <atominfo>
  <atoms>       4 </atoms>
  <types>       1 </types>
  <array name="atoms" >
   <dimension dim="1">ion</dimension>
   <field type="string">element</field>
   <field type="int">atomtype</field>
   <set>
    <rc><c>Al</c><c>   1</c></rc>
    <rc><c>Al</c><c>   1</c></rc>
    <rc><c>Al</c><c>   1</c></rc>
    <rc><c>Al</c><c>   1</c></rc>
   </set>
  </array>
  <array name="atomtypes" >
   <dimension dim="1">type</dimension>
   <field type="int">atomspertype</field>
   <field type="string">element</field>
   <field>mass</field>
   <field>valence</field>
   <field type="string">pseudopotential</field>
   <set>
    <rc><c>   4</c><c>Al</c><c>     26.98100000</c><c>      3.00000000</c><c>  PAW_PBE Al 04Jan2001                  </c></rc>
   </set>
  </array>
 </atominfo>
 <structure name="initialpos" >
  <crystal>
   <varray name="basis" >
    <v>       4.23154445       0.00000000       0.00000000 </v>
    <v>      -0.00000000       4.23154445       0.00000000 </v>
    <v>       0.00000000       0.00000000       4.23154445 </v>
   </varray>
   <i name="volume">     75.76990110 </i>
   <varray name="rec_basis" >
    <v>       0.23632033       0.00000000      -0.00000000 </v>
    <v>       0.00000000       0.23632033       0.00000000 </v>
    <v>      -0.00000000      -0.00000000       0.23632033 </v>
   </varray>
  </crystal>
  <varray name="positions" >
   <v>       0.00000000       0.00000000       0.00000000 </v>
   <v>       0.00000000       0.50000000       0.50000000 </v>
   <v>       0.50000000       0.00000000       0.50000000 </v>
   <v>       0.50000000       0.50000000       0.00000000 </v>
  </varray>
 </structure>
 <calculation>
  <scstep>
   <time name="dav">   10.34    5.18</time>
   <time name="total">   10.39    5.21</time>
   <energy>
    <i name="alphaZ">     -0.70926526 </i>
    <i name="ewald">   -280.83805167 </i>
    <i name="hartreedc">     -0.69811310 </i>
    <i name="XCdc">   -105.92498259 </i>
    <i name="pawpsdc">    264.80062850 </i>
    <i name="pawaedc">   -136.98248303 </i>
    <i name="eentropy">      0.00013642 </i>
    <i name="bandstr">     43.23756208 </i>
    <i name="atom">    214.15261729 </i>
    <i name="e_fr_energy">     -2.96195135 </i>
    <i name="e_wo_entrp">     -2.96208777 </i>
    <i name="e_0_energy">     -2.96199683 </i>
   </energy>
  </scstep>
  <scstep>
   <time name="dav">   15.27    7.67</time>
   <time name="total">   15.28    7.68</time>
   <energy>
    <i name="e_fr_energy">    -14.71995449 </i>
    <i name="e_wo_entrp">    -14.71806120 </i>
    <i name="e_0_energy">    -14.71932339 </i>
   </energy>
  </scstep>
  <scstep>
   <time name="dav">   13.69    6.87</time>
   <time name="total">   13.69    6.88</time>
   <energy>
    <i name="e_fr_energy">    -14.79183632 </i>
    <i name="e_wo_entrp">    -14.79027618 </i>
    <i name="e_0_energy">    -14.79131627 </i>
   </energy>
  </scstep>
  <scstep>
   <time name="dav">   17.38    8.72</time>
   <time name="total">   17.39    8.72</time>
   <energy>
    <i name="e_fr_energy">    -14.79203026 </i>
    <i name="e_wo_entrp">    -14.79047185 </i>
    <i name="e_0_energy">    -14.79151079 </i>
   </energy>
  </scstep>
  <scstep>
   <time name="dav">   14.01    7.01</time>
   <time name="total">   14.39    7.21</time>
   <energy>
    <i name="e_fr_energy">    -14.79203041 </i>
    <i name="e_wo_entrp">    -14.79047200 </i>
    <i name="e_0_energy">    -14.79151094 </i>
   </energy>
  </scstep>
  <scstep>
   <time name="diag">    1.77    0.88</time>
   <time name="diis">    3.26    1.73</time>
   <time name="orth">    0.13    0.07</time>
   <time name="total">    5.59    2.90</time>
   <energy>
    <i name="e_fr_energy">    -14.74375489 </i>
    <i name="e_wo_entrp">    -14.74220392 </i>
    <i name="e_0_energy">    -14.74323790 </i>
   </energy>
  </scstep>
  <scstep>
   <time name="diag">    1.75    0.88</time>
   <time name="diis">    3.23    1.71</time>
   <time name="orth">    0.13    0.07</time>
   <time name="total">    5.54    2.87</time>
   <energy>
    <i name="e_fr_energy">    -14.70887285 </i>
    <i name="e_wo_entrp">    -14.70734616 </i>
    <i name="e_0_energy">    -14.70836396 </i>
   </energy>
  </scstep>
  <scstep>
   <time name="diag">    2.14    1.07</time>
   <time name="diis">    3.25    1.73</time>
   <time name="orth">    0.13    0.06</time>
   <time name="total">    5.94    3.08</time>
   <energy>
    <i name="e_fr_energy">    -14.70884816 </i>
    <i name="e_wo_entrp">    -14.70732317 </i>
    <i name="e_0_energy">    -14.70833983 </i>
   </energy>
  </scstep>
  <scstep>
   <time name="diag">    1.92    0.96</time>
   <time name="diis">    3.30    1.75</time>
   <time name="orth">    0.13    0.07</time>
   <time name="total">    5.81    3.01</time>
   <energy>
    <i name="e_fr_energy">    -14.70885338 </i>
    <i name="e_wo_entrp">    -14.70732892 </i>
    <i name="e_0_energy">    -14.70834523 </i>
   </energy>
  </scstep>
  <scstep>
   <time name="diag">    2.54    1.27</time>
   <time name="diis">    3.36    1.82</time>
   <time name="orth">    0.14    0.07</time>
   <time name="total">    6.53    3.41</time>
   <energy>
    <i name="e_fr_energy">    -14.70885558 </i>
    <i name="e_wo_entrp">    -14.70733108 </i>
    <i name="e_0_energy">    -14.70834741 </i>
   </energy>
  </scstep>
  <scstep>
   <time name="diag">    1.76    0.88</time>
   <time name="diis">    3.28    1.75</time>
   <time name="orth">    0.13    0.07</time>
   <time name="total">    5.58    2.91</time>
   <energy>
    <i name="e_fr_energy">    -14.70885017 </i>
    <i name="e_wo_entrp">    -14.70732559 </i>
    <i name="e_0_energy">    -14.70834198 </i>
   </energy>
  </scstep>
  <scstep>
   <time name="diag">    1.74    0.87</time>
   <time name="diis">    2.59    1.66</time>
   <time name="orth">    0.13    0.07</time>
   <time name="total">    4.51    2.62</time>
   <energy>
    <i name="alphaZ">     -0.70926526 </i>
    <i name="ewald">   -280.83805167 </i>
    <i name="hartreedc">     -0.41372767 </i>
    <i name="XCdc">   -105.61096054 </i>
    <i name="pawpsdc">    450.34683928 </i>
    <i name="pawaedc">   -322.50724144 </i>
    <i name="eentropy">     -0.00152459 </i>
    <i name="bandstr">     30.87246399 </i>
    <i name="atom">    214.15261729 </i>
    <i name="e_fr_energy">    -14.70885061 </i>
    <i name="e_wo_entrp">    -14.70732602 </i>
    <i name="e_0_energy">    -14.70834242 </i>
   </energy>
  </scstep>
  <structure>
   <crystal>
    <varray name="basis" >
     <v>       4.23154445       0.00000000       0.00000000 </v>
     <v>      -0.00000000       4.23154445       0.00000000 </v>
     <v>       0.00000000       0.00000000       4.23154445 </v>
    </varray>
    <i name="volume">     75.76990110 </i>
    <varray name="rec_basis" >
     <v>       0.23632033       0.00000000      -0.00000000 </v>
     <v>       0.00000000       0.23632033       0.00000000 </v>
     <v>      -0.00000000      -0.00000000       0.23632033 </v>
    </varray>
   </crystal>
   <varray name="positions" >
    <v>       0.00000000       0.00000000       0.00000000 </v>
    <v>       0.00000000       0.50000000       0.50000000 </v>
    <v>       0.50000000       0.00000000       0.50000000 </v>
    <v>       0.50000000       0.50000000       0.00000000 </v>
   </varray>
  </structure>
  <varray name="forces" >
   <v>       0.00000000      -0.00000000       0.00000000 </v>
   <v>      -0.00000000       0.00000000      -0.00000000 </v>
   <v>      -0.00000000      -0.00000000       0.00000000 </v>
   <v>       0.00000000       0.00000000       0.00000000 </v>
  </varray>
  <varray name="stress" >
   <v>     -77.81339627      -0.00000000      -0.00000000 </v>
   <v>       0.00000000     -77.81339627      -0.00000000 </v>
   <v>      -0.00000000      -0.00000000     -77.81339627 </v>
  </varray>
  <energy>
   <i name="e_fr_energy">    -14.70885061 </i>
   <i name="e_wo_entrp">    -14.70732602 </i>
   <i name="e_0_energy">    -14.70834242 </i>
  </energy>
  <time name="totalsc">  119.75   61.24</time>
  <eigenvalues>
   <array>
    <dimension dim="1">band</dimension>
    <dimension dim="2">kpoint</dimension>
    <dimension dim="3">spin</dimension>
    <field>eigene</field>
    <field>occ</field>
    <set>
     <set comment="spin 1">
      <set comment="kpoint 1">
       <r>   -3.5821    1.0000 </r>
       <r>    4.0420    1.0000 </r>
       <r>    4.0420    1.0000 </r>
       <r>    4.0420    1.0000 </r>
       <r>    5.0211    1.0000 </r>
       <r>    5.0211    1.0000 </r>
       <r>    5.0211    1.0000 </r>
       <r>   11.6242   -0.0000 </r>
       <r>   11.6242   -0.0000 </r>
       <r>   11.6242   -0.0000 </r>
       <r>   11.6242   -0.0000 </r>
       <r>   11.6242   -0.0000 </r>
       <r>   11.6242   -0.0000 </r>
       <r>   11.8545   -0.0000 </r>
      </set>
      <set comment="kpoint 2">
       <r>   -3.5592    1.0000 </r>
       <r>    3.5838    1.0000 </r>
       <r>    4.0633    1.0000 </r>
       <r>    4.0633    1.0000 </r>
       <r>    5.0437    1.0000 </r>
       <r>    5.0437    1.0000 </r>
       <r>    5.5197    1.0000 </r>
       <r>   10.9418   -0.0000 </r>
       <r>   10.9418   -0.0000 </r>
       <r>   11.4341   -0.0000 </r>
       <r>   11.4341   -0.0000 </r>
       <r>   11.6441   -0.0000 </r>
       <r>   11.6441   -0.0000 </r>
       <r>   11.8771   -0.0000 </r>
      </set>
      <set comment="kpoint 3">
       <r>   -3.4905    1.0000 </r>
       <r>    2.8724    1.0000 </r>
       <r>    4.1270    1.0000 </r>
       <r>    4.1270    1.0000 </r>
       <r>    5.1112    1.0000 </r>
       <r>    5.1112    1.0000 </r>
       <r>    6.3519    1.0334 </r>
       <r>   10.1989   -0.0000 </r>
       <r>   10.1989   -0.0000 </r>
       <r>   10.9810   -0.0000 </r>
       <r>   10.9810   -0.0000 </r>
       <r>   11.7038   -0.0000 </r>
       <r>   11.7038   -0.0000 </r>
       <r>   11.9447   -0.0000 </r>
      </set>
      <set comment="kpoint 4">
       <r>   -3.3761    1.0000 </r>
       <r>    2.1626    1.0000 </r>
       <r>    4.2333    1.0000 </r>
       <r>    4.2333    1.0000 </r>
       <r>    5.2237    1.0000 </r>
       <r>    5.2237    1.0000 </r>
       <r>    7.2629   -0.0000 </r>
       <r>    9.4958   -0.0000 </r>
       <r>    9.4958   -0.0000 </r>
       <r>   10.4232   -0.0000 </r>
       <r>   10.4232   -0.0000 </r>
       <r>   11.8034   -0.0000 </r>
       <r>   11.8034   -0.0000 </r>
       <r>   12.0574   -0.0000 </r>
      </set>
      <set comment="kpoint 5">
       <r>   -3.2161    1.0000 </r>
       <r>    1.4835    1.0000 </r>
       <r>    4.3821    1.0000 </r>
       <r>    4.3821    1.0000 </r>
       <r>    5.3809    1.0000 </r>
       <r>    5.3809    1.0000 </r>
       <r>    8.2232   -0.0000 </r>
       <r>    8.8349   -0.0000 </r>
       <r>    8.8349   -0.0000 </r>
       <r>    9.8390   -0.0000 </r>
       <r>    9.8390   -0.0000 </r>
       <r>   11.9428   -0.0000 </r>
       <r>   11.9428   -0.0000 </r>
       <r>   12.2150    0.0000 </r>
      </set>
      <set comment="kpoint 6">
       <r>   -3.0106    1.0000 </r>
       <r>    0.8421    1.0000 </r>
       <r>    4.5736    1.0000 </r>
       <r>    4.5736    1.0000 </r>
       <r>    5.5824    1.0000 </r>
       <r>    5.5824    1.0000 </r>
       <r>    8.2164   -0.0000 </r>
       <r>    8.2164   -0.0000 </r>
       <r>    9.2252   -0.0000 </r>
       <r>    9.2616   -0.0000 </r>
       <r>    9.2616   -0.0000 </r>
       <r>   12.1220    0.0000 </r>
       <r>   12.1220    0.0000 </r>
       <r>   12.4174    0.0000 </r>
      </set>
      <set comment="kpoint 7">
       <r>   -2.7598    1.0000 </r>
       <r>    0.2410    1.0000 </r>
       <r>    4.8076    1.0000 </r>
       <r>    4.8076    1.0000 </r>
       <r>    5.8279    1.0000 </r>
       <r>    5.8279    1.0000 </r>
       <r>    7.6407   -0.0000 </r>
       <r>    7.6407   -0.0000 </r>
       <r>    8.7063   -0.0000 </r>
       <r>    8.7063   -0.0000 </r>
       <r>   10.2653   -0.0000 </r>
       <r>   12.3411    0.0000 </r>
       <r>   12.3411    0.0000 </r>
       <r>   12.6641    0.0000 </r>
      </set>
      <set comment="kpoint 8">
       <r>   -2.4638    1.0000 </r>
       <r>   -0.3183    1.0000 </r>
       <r>    5.0841    1.0000 </r>
       <r>    5.0841    1.0000 </r>
       <r>    6.1168    1.0010 </r>
       <r>    6.1168    1.0010 </r>
       <r>    7.1077   -0.0016 </r>
       <r>    7.1077   -0.0016 </r>
       <r>    8.1809   -0.0000 </r>
       <r>    8.1809   -0.0000 </r>
       <r>   11.3405   -0.0000 </r>
       <r>   12.6001    0.0000 </r>
       <r>   12.6001    0.0000 </r>
       <r>   12.9553    0.0000 </r>
      </set>
      <set comment="kpoint 9">
       <r>   -2.1231    1.0000 </r>
       <r>   -0.8349    1.0000 </r>
       <r>    5.4034    1.0000 </r>
       <r>    5.4034    1.0000 </r>
       <r>    6.4485    1.0055 </r>
       <r>    6.4485    1.0055 </r>
       <r>    6.6175    0.5197 </r>
       <r>    6.6175    0.5197 </r>
       <r>    7.6900   -0.0000 </r>
       <r>    7.6900   -0.0000 </r>
       <r>   12.4472    0.0000 </r>
       <r>   12.8988    0.0000 </r>
       <r>   12.8988    0.0000 </r>
       <r>   13.2904    0.0000 </r>
      </set>
      <set comment="kpoint 10">
       <r>   -1.7377    1.0000 </r>
       <r>   -1.3082    1.0000 </r>
       <r>    5.7653    1.0000 </r>
       <r>    5.7653    1.0000 </r>
       <r>    6.1700    1.0032 </r>
       <r>    6.1700    1.0032 </r>
       <r>    6.8219   -0.0250 </r>
       <r>    6.8219   -0.0250 </r>
       <r>    7.2364   -0.0001 </r>
       <r>    7.2364   -0.0001 </r>
       <r>   13.2373    0.0000 </r>
       <r>   13.2374    0.0000 </r>
       <r>   13.5816    0.0000 </r>
       <r>   13.6167    0.0000 </r>
      </set>
      <set comment="kpoint 11">
       <r>   -3.5363    1.0000 </r>
       <r>    3.6054    1.0000 </r>
       <r>    3.6054    1.0000 </r>
       <r>    4.0845    1.0000 </r>
       <r>    5.0662    1.0000 </r>
       <r>    5.5418    1.0000 </r>
       <r>    5.5418    1.0000 </r>
       <r>   10.4424   -0.0000 </r>
       <r>   10.9628   -0.0000 </r>
       <r>   10.9628   -0.0000 </r>
       <r>   11.4542   -0.0000 </r>
       <r>   11.4542   -0.0000 </r>
       <r>   11.6641   -0.0000 </r>
       <r>   12.6015    0.0000 </r>
      </set>
      <set comment="kpoint 12">
       <r>   -3.4676    1.0000 </r>
       <r>    2.8943    1.0000 </r>
       <r>    3.6704    1.0000 </r>
       <r>    4.1483    1.0000 </r>
       <r>    5.1337    1.0000 </r>
       <r>    5.6081    1.0000 </r>
       <r>    6.3737    1.0354 </r>
       <r>    9.7475   -0.0000 </r>
       <r>   10.2200   -0.0000 </r>
       <r>   11.0014   -0.0000 </r>
       <r>   11.0260   -0.0000 </r>
       <r>   11.3990   -0.0000 </r>
       <r>   11.5145   -0.0000 </r>
       <r>   12.6648    0.0000 </r>
      </set>
      <set comment="kpoint 13">
       <r>   -3.3532    1.0000 </r>
       <r>    2.1846    1.0000 </r>
       <r>    3.7786    1.0000 </r>
       <r>    4.2546    1.0000 </r>
       <r>    5.2462    1.0000 </r>
       <r>    5.7186    1.0000 </r>
       <r>    7.2846   -0.0000 </r>
       <r>    9.0635   -0.0000 </r>
       <r>    9.5171   -0.0000 </r>
       <r>   10.4439   -0.0000 </r>
       <r>   10.8697   -0.0000 </r>
       <r>   11.1313   -0.0000 </r>
       <r>   11.6149   -0.0000 </r>
       <r>   12.7717    0.0000 </r>
      </set>
      <set comment="kpoint 14">
       <r>   -3.1932    1.0000 </r>
       <r>    1.5056    1.0000 </r>
       <r>    3.9301    1.0000 </r>
       <r>    4.4034    1.0000 </r>
       <r>    5.4033    1.0000 </r>
       <r>    5.8731    1.0000 </r>
       <r>    8.2447   -0.0000 </r>
       <r>    8.4110   -0.0000 </r>
       <r>    8.8561   -0.0000 </r>
       <r>    9.8599   -0.0000 </r>
       <r>   10.2910   -0.0000 </r>
       <r>   11.2786   -0.0000 </r>
       <r>   11.7554   -0.0000 </r>
       <r>   12.9213    0.0000 </r>
      </set>
      <set comment="kpoint 15">
       <r>   -2.9878    1.0000 </r>
       <r>    0.8643    1.0000 </r>
       <r>    4.1247    1.0000 </r>
       <r>    4.5948    1.0000 </r>
       <r>    5.6048    1.0000 </r>
       <r>    6.0714    1.0003 </r>
       <r>    7.7958   -0.0000 </r>
       <r>    8.2377   -0.0000 </r>
       <r>    9.2465   -0.0000 </r>
       <r>    9.2828   -0.0000 </r>
       <r>    9.7158   -0.0000 </r>
       <r>   11.4677   -0.0000 </r>
       <r>   11.9360   -0.0000 </r>
       <r>   13.1137    0.0000 </r>
      </set>
      <set comment="kpoint 16">
       <r>   -2.7370    1.0000 </r>
       <r>    0.2634    1.0000 </r>
       <r>    4.3624    1.0000 </r>
       <r>    4.8288    1.0000 </r>
       <r>    5.8502    1.0000 </r>
       <r>    6.3130    1.0256 </r>
       <r>    7.2204   -0.0001 </r>
       <r>    7.6619   -0.0000 </r>
       <r>    8.7277   -0.0000 </r>
       <r>    9.1628   -0.0000 </r>
       <r>   10.2864   -0.0000 </r>
       <r>   11.6986   -0.0000 </r>
       <r>   12.1566    0.0000 </r>
       <r>   13.3487    0.0000 </r>
      </set>
      <set comment="kpoint 17">
       <r>   -2.4411    1.0000 </r>
       <r>   -0.2958    1.0000 </r>
       <r>    4.6431    1.0000 </r>
       <r>    5.1054    1.0000 </r>
       <r>    6.1389    1.0017 </r>
       <r>    6.5977    0.6025 </r>
       <r>    6.6858    0.2450 </r>
       <r>    7.1289   -0.0010 </r>
       <r>    8.2025   -0.0000 </r>
       <r>    8.6404   -0.0000 </r>
       <r>   11.3612   -0.0000 </r>
       <r>   11.9709   -0.0000 </r>
       <r>   12.4173    0.0000 </r>
       <r>   13.6308    0.0000 </r>
      </set>
      <set comment="kpoint 18">
       <r>   -2.1004    1.0000 </r>
       <r>   -0.8124    1.0000 </r>
       <r>    4.9666    1.0000 </r>
       <r>    5.4246    1.0000 </r>
       <r>    6.1924    1.0048 </r>
       <r>    6.4708    0.9780 </r>
       <r>    6.6388    0.4299 </r>
       <r>    6.9249   -0.0270 </r>
       <r>    7.7117   -0.0000 </r>
       <r>    8.1532   -0.0000 </r>
       <r>   12.2845    0.0000 </r>
       <r>   12.4656    0.0000 </r>
       <r>   12.7198    0.0000 </r>
       <r>   13.4710    0.0000 </r>
      </set>
      <set comment="kpoint 19">
       <r>   -1.7151    1.0000 </r>
       <r>   -1.2856    1.0000 </r>
       <r>    5.3328    1.0000 </r>
       <r>    5.7415    1.0000 </r>
       <r>    5.7866    1.0000 </r>
       <r>    6.1913    1.0047 </r>
       <r>    6.8440   -0.0331 </r>
       <r>    7.2578   -0.0000 </r>
       <r>    7.2942   -0.0000 </r>
       <r>    7.7037   -0.0000 </r>
       <r>   12.6391    0.0000 </r>
       <r>   13.0346    0.0000 </r>
       <r>   13.0549    0.0000 </r>
       <r>   13.4675    0.0000 </r>
      </set>
      <set comment="kpoint 20">
       <r>   -3.3990    1.0000 </r>
       <r>    2.9600    1.0000 </r>
       <r>    2.9600    1.0000 </r>
       <r>    4.2121    1.0000 </r>
       <r>    5.2012    1.0000 </r>
       <r>    6.4393    1.0138 </r>
       <r>    6.4393    1.0138 </r>
       <r>    9.0649   -0.0000 </r>
       <r>   10.2836   -0.0000 </r>
       <r>   10.2836   -0.0000 </r>
       <r>   11.0626   -0.0000 </r>
       <r>   11.0626   -0.0000 </r>
       <r>   11.7838   -0.0000 </r>
       <r>   13.1553    0.0000 </r>
      </set>
      <set comment="kpoint 21">
       <r>   -3.2847    1.0000 </r>
       <r>    2.2508    1.0000 </r>
       <r>    3.0694    1.0000 </r>
       <r>    4.3183    1.0000 </r>
       <r>    5.3135    1.0000 </r>
       <r>    6.5485    0.7894 </r>
       <r>    7.3496   -0.0000 </r>
       <r>    8.3844   -0.0000 </r>
       <r>    9.5808   -0.0000 </r>
       <r>   10.3895   -0.0000 </r>
       <r>   10.5059   -0.0000 </r>
       <r>   11.1646   -0.0000 </r>
       <r>   11.5517   -0.0000 </r>
       <r>   13.6548    0.0000 </r>
      </set>
      <set comment="kpoint 22">
       <r>   -3.1247    1.0000 </r>
       <r>    1.5721    1.0000 </r>
       <r>    3.2225    1.0000 </r>
       <r>    4.4672    1.0000 </r>
       <r>    5.4705    1.0000 </r>
       <r>    6.7012    0.1927 </r>
       <r>    7.7324   -0.0000 </r>
       <r>    8.3091   -0.0000 </r>
       <r>    8.9199   -0.0000 </r>
       <r>    9.9228   -0.0000 </r>
       <r>   10.5376   -0.0000 </r>
       <r>   11.0438   -0.0000 </r>
       <r>   11.3072   -0.0000 </r>
       <r>   13.7886    0.0000 </r>
      </set>
      <set comment="kpoint 23">
       <r>   -2.9194    1.0000 </r>
       <r>    0.9311    1.0000 </r>
       <r>    3.4191    1.0000 </r>
       <r>    4.6586    1.0000 </r>
       <r>    5.6718    1.0000 </r>
       <r>    6.8971   -0.0327 </r>
       <r>    7.1162   -0.0013 </r>
       <r>    8.3015   -0.0000 </r>
       <r>    9.3104   -0.0000 </r>
       <r>    9.3463   -0.0000 </r>
       <r>   10.4928   -0.0000 </r>
       <r>   10.7280   -0.0000 </r>
       <r>   11.4903   -0.0000 </r>
       <r>   13.9796    0.0000 </r>
      </set>
      <set comment="kpoint 24">
       <r>   -2.6687    1.0000 </r>
       <r>    0.3304    1.0000 </r>
       <r>    3.6593    1.0000 </r>
       <r>    4.8926    1.0000 </r>
       <r>    5.9168    1.0000 </r>
       <r>    6.5388    0.8210 </r>
       <r>    7.1360   -0.0008 </r>
       <r>    7.7258   -0.0000 </r>
       <r>    8.7918   -0.0000 </r>
       <r>    9.9517   -0.0000 </r>
       <r>   10.3495   -0.0000 </r>
       <r>   10.9605   -0.0000 </r>
       <r>   11.7139   -0.0000 </r>
       <r>   13.7506    0.0000 </r>
      </set>
      <set comment="kpoint 25">
       <r>   -2.3729    1.0000 </r>
       <r>   -0.2286    1.0000 </r>
       <r>    3.9427    1.0000 </r>
       <r>    5.1692    1.0000 </r>
       <r>    6.0004    1.0001 </r>
       <r>    6.2064    1.0062 </r>
       <r>    7.1928   -0.0002 </r>
       <r>    7.4174   -0.0000 </r>
       <r>    8.2671   -0.0000 </r>
       <r>    9.4369   -0.0000 </r>
       <r>   11.2350   -0.0000 </r>
       <r>   11.4229   -0.0000 </r>
       <r>   11.9785   -0.0000 </r>
       <r>   13.2294    0.0000 </r>
      </set>
      <set comment="kpoint 26">
       <r>   -2.0323    1.0000 </r>
       <r>   -0.7449    1.0000 </r>
       <r>    4.2692    1.0000 </r>
       <r>    5.4885    1.0000 </r>
       <r>    5.5049    1.0000 </r>
       <r>    6.5371    0.8264 </r>
       <r>    6.7026    0.1881 </r>
       <r>    7.7409   -0.0000 </r>
       <r>    7.7768   -0.0000 </r>
       <r>    8.9556   -0.0000 </r>
       <r>   11.5512   -0.0000 </r>
       <r>   12.2750    0.0000 </r>
       <r>   12.5360    0.0000 </r>
       <r>   12.7485    0.0000 </r>
      </set>
      <set comment="kpoint 27">
       <r>   -1.6472    1.0000 </r>
       <r>   -1.2180    1.0000 </r>
       <r>    4.6387    1.0000 </r>
       <r>    5.0507    1.0000 </r>
       <r>    5.8505    1.0000 </r>
       <r>    6.2552    1.0131 </r>
       <r>    6.9100   -0.0302 </r>
       <r>    7.3238   -0.0000 </r>
       <r>    8.1059   -0.0000 </r>
       <r>    8.5112   -0.0000 </r>
       <r>   11.9091   -0.0000 </r>
       <r>   12.3083    0.0000 </r>
       <r>   12.6209    0.0000 </r>
       <r>   13.0025    0.0000 </r>
      </set>
      <set comment="kpoint 28">
       <r>   -3.1704    1.0000 </r>
       <r>    2.3609    1.0000 </r>
       <r>    2.3609    1.0000 </r>
       <r>    4.4246    1.0000 </r>
       <r>    5.4257    1.0000 </r>
       <r>    7.4578   -0.0000 </r>
       <r>    7.4578   -0.0000 </r>
       <r>    7.7028   -0.0000 </r>
       <r>    9.6869   -0.0000 </r>
       <r>    9.6869   -0.0000 </r>
       <r>   10.6093   -0.0000 </r>
       <r>   10.6093   -0.0000 </r>
       <r>   11.9834   -0.0000 </r>
       <r>   13.4943    0.0000 </r>
      </set>
      <set comment="kpoint 29">
       <r>   -3.0106    1.0000 </r>
       <r>    1.6828    1.0000 </r>
       <r>    2.5150    1.0000 </r>
       <r>    4.5735    1.0000 </r>
       <r>    5.5824    1.0000 </r>
       <r>    7.0487   -0.0051 </r>
       <r>    7.6090   -0.0000 </r>
       <r>    8.4165   -0.0000 </r>
       <r>    9.0261   -0.0000 </r>
       <r>    9.8354   -0.0000 </r>
       <r>   10.0274   -0.0000 </r>
       <r>   10.7539   -0.0000 </r>
       <r>   11.7934   -0.0000 </r>
       <r>   14.0036    0.0000 </r>
      </set>
      <set comment="kpoint 30">
       <r>   -2.8054    1.0000 </r>
       <r>    1.0423    1.0000 </r>
       <r>    2.7130    1.0000 </r>
       <r>    4.7649    1.0000 </r>
       <r>    5.7832    1.0000 </r>
       <r>    6.4303    1.0204 </r>
       <r>    7.8032   -0.0000 </r>
       <r>    8.4078   -0.0000 </r>
       <r>    9.4167   -0.0000 </r>
       <r>    9.4521   -0.0000 </r>
       <r>   10.0263   -0.0000 </r>
       <r>   10.9395   -0.0000 </r>
       <r>   11.3242   -0.0000 </r>
       <r>   13.6267    0.0000 </r>
      </set>
      <set comment="kpoint 31">
       <r>   -2.5549    1.0000 </r>
       <r>    0.4420    1.0000 </r>
       <r>    2.9547    1.0000 </r>
       <r>    4.9990    1.0000 </r>
       <r>    5.8485    1.0000 </r>
       <r>    6.0298    1.0001 </r>
       <r>    7.8321   -0.0000 </r>
       <r>    8.0399   -0.0000 </r>
       <r>    8.8985   -0.0000 </r>
       <r>   10.2595   -0.0000 </r>
       <r>   10.4545   -0.0000 </r>
       <r>   10.8122   -0.0000 </r>
       <r>   11.1661   -0.0000 </r>
       <r>   13.0629    0.0000 </r>
      </set>
      <set comment="kpoint 32">
       <r>   -2.2593    1.0000 </r>
       <r>   -0.1165    1.0000 </r>
       <r>    3.2399    1.0000 </r>
       <r>    5.2756    1.0000 </r>
       <r>    5.3097    1.0000 </r>
       <r>    6.3167    1.0264 </r>
       <r>    7.2992   -0.0000 </r>
       <r>    8.3187   -0.0000 </r>
       <r>    8.3747   -0.0000 </r>
       <r>   10.3118   -0.0000 </r>
       <r>   10.5349   -0.0000 </r>
       <r>   11.4251   -0.0000 </r>
       <r>   11.5353   -0.0000 </r>
       <r>   12.5388    0.0000 </r>
      </set>
      <set comment="kpoint 33">
       <r>   -1.9190    1.0000 </r>
       <r>   -0.6325    1.0000 </r>
       <r>    3.5684    1.0000 </r>
       <r>    4.8111    1.0000 </r>
       <r>    5.5949    1.0000 </r>
       <r>    6.6473    0.3942 </r>
       <r>    6.8090   -0.0169 </r>
       <r>    7.8852   -0.0000 </r>
       <r>    8.6391   -0.0000 </r>
       <r>    9.8391   -0.0000 </r>
       <r>   10.8523   -0.0000 </r>
       <r>   11.7371   -0.0000 </r>
       <r>   12.0552   -0.0000 </r>
       <r>   12.6348    0.0000 </r>
      </set>
      <set comment="kpoint 34">
       <r>   -1.5342    1.0000 </r>
       <r>   -1.1052    1.0000 </r>
       <r>    3.9400    1.0000 </r>
       <r>    4.3544    1.0000 </r>
       <r>    5.9568    1.0000 </r>
       <r>    6.3616    1.0346 </r>
       <r>    7.0198   -0.0083 </r>
       <r>    7.4328   -0.0000 </r>
       <r>    9.0002   -0.0000 </r>
       <r>    9.4008   -0.0000 </r>
       <r>   11.2117   -0.0000 </r>
       <r>   11.6127   -0.0000 </r>
       <r>   12.0831    0.0000 </r>
       <r>   12.4674    0.0000 </r>
      </set>
      <set comment="kpoint 35">
       <r>   -2.8510    1.0000 </r>
       <r>    1.8377    1.0000 </r>
       <r>    1.8377    1.0000 </r>
       <r>    4.7224    1.0000 </r>
       <r>    5.7385    1.0000 </r>
       <r>    6.3924    1.0345 </r>
       <r>    8.5664   -0.0000 </r>
       <r>    8.5664   -0.0000 </r>
       <r>    9.1749   -0.0000 </r>
       <r>    9.1749   -0.0000 </r>
       <r>   10.1737   -0.0000 </r>
       <r>   10.1737   -0.0000 </r>
       <r>   12.2627    0.0000 </r>
       <r>   13.5863    0.0000 </r>
      </set>
      <set comment="kpoint 36">
       <r>   -2.6459    1.0000 </r>
       <r>    1.1979    1.0000 </r>
       <r>    2.0367    1.0000 </r>
       <r>    4.9139    1.0000 </r>
       <r>    5.7691    1.0000 </r>
       <r>    5.9413    1.0000 </r>
       <r>    8.5566   -0.0000 </r>
       <r>    8.7588   -0.0000 </r>
       <r>    9.3661   -0.0000 </r>
       <r>    9.5652   -0.0000 </r>
       <r>    9.5998   -0.0000 </r>
       <r>   10.3615   -0.0000 </r>
       <r>   12.1179    0.0000 </r>
       <r>   12.9791    0.0000 </r>
      </set>
      <set comment="kpoint 37">
       <r>   -2.3957    1.0000 </r>
       <r>    0.5982    1.0000 </r>
       <r>    2.2796    1.0000 </r>
       <r>    5.1479    1.0000 </r>
       <r>    5.1880    1.0000 </r>
       <r>    6.1842    1.0041 </r>
       <r>    7.9811   -0.0000 </r>
       <r>    8.9933   -0.0000 </r>
       <r>    9.0477   -0.0000 </r>
       <r>    9.5996   -0.0000 </r>
       <r>   10.5795   -0.0000 </r>
       <r>   10.6124   -0.0000 </r>
       <r>   11.6928   -0.0000 </r>
       <r>   12.4121    0.0000 </r>
      </set>
      <set comment="kpoint 38">
       <r>   -2.1005    1.0000 </r>
       <r>    0.0402    1.0000 </r>
       <r>    2.5662    1.0000 </r>
       <r>    4.6458    1.0000 </r>
       <r>    5.4245    1.0000 </r>
       <r>    6.4715    0.9770 </r>
       <r>    7.4482   -0.0000 </r>
       <r>    8.5250   -0.0000 </r>
       <r>    9.2694   -0.0000 </r>
       <r>    9.8756   -0.0000 </r>
       <r>   10.8588   -0.0000 </r>
       <r>   11.2238   -0.0000 </r>
       <r>   11.6736   -0.0000 </r>
       <r>   11.8857   -0.0000 </r>
      </set>
      <set comment="kpoint 39">
       <r>   -1.7605    1.0000 </r>
       <r>   -0.4752    1.0000 </r>
       <r>    2.8964    1.0000 </r>
       <r>    4.1449    1.0000 </r>
       <r>    5.7438    1.0000 </r>
       <r>    6.8015   -0.0108 </r>
       <r>    6.9580   -0.0194 </r>
       <r>    8.0366   -0.0000 </r>
       <r>    9.5863   -0.0000 </r>
       <r>   10.1937   -0.0000 </r>
       <r>   10.7664   -0.0000 </r>
       <r>   11.1684   -0.0000 </r>
       <r>   11.4002   -0.0000 </r>
       <r>   12.3294    0.0000 </r>
      </set>
      <set comment="kpoint 40">
       <r>   -1.3760    1.0000 </r>
       <r>   -0.9475    1.0000 </r>
       <r>    3.2697    1.0000 </r>
       <r>    3.6861    1.0000 </r>
       <r>    6.1058    1.0008 </r>
       <r>    6.5105    0.9002 </r>
       <r>    7.1731   -0.0003 </r>
       <r>    7.5853   -0.0000 </r>
       <r>    9.9428   -0.0000 </r>
       <r>   10.3373   -0.0000 </r>
       <r>   10.5540   -0.0000 </r>
       <r>   10.9562   -0.0000 </r>
       <r>   11.5173   -0.0000 </r>
       <r>   11.9046   -0.0000 </r>
      </set>
      <set comment="kpoint 41">
       <r>   -2.4412    1.0000 </r>
       <r>    1.3977    1.0000 </r>
       <r>    1.3977    1.0000 </r>
       <r>    5.1053    1.0000 </r>
       <r>    5.1468    1.0000 </r>
       <r>    6.1399    1.0017 </r>
       <r>    8.7480   -0.0000 </r>
       <r>    8.7480   -0.0000 </r>
       <r>    9.7546   -0.0000 </r>
       <r>    9.7546   -0.0000 </r>
       <r>    9.7906   -0.0000 </r>
       <r>    9.7906   -0.0000 </r>
       <r>   12.3699    0.0000 </r>
       <r>   12.6217    0.0000 </r>
      </set>
      <set comment="kpoint 42">
       <r>   -2.1913    1.0000 </r>
       <r>    0.7988    1.0000 </r>
       <r>    1.6416    1.0000 </r>
       <r>    4.5620    1.0000 </r>
       <r>    5.3393    1.0000 </r>
       <r>    6.3833    1.0353 </r>
       <r>    8.1725   -0.0000 </r>
       <r>    8.9818   -0.0000 </r>
       <r>    9.2389   -0.0000 </r>
       <r>    9.9877   -0.0000 </r>
       <r>   10.0202   -0.0000 </r>
       <r>   10.7901   -0.0000 </r>
       <r>   11.8008   -0.0000 </r>
       <r>   12.5236    0.0000 </r>
      </set>
      <set comment="kpoint 43">
       <r>   -1.8964    1.0000 </r>
       <r>    0.2415    1.0000 </r>
       <r>    1.9295    1.0000 </r>
       <r>    4.0177    1.0000 </r>
       <r>    5.6160    1.0000 </r>
       <r>    6.6700    0.3037 </r>
       <r>    7.6397   -0.0000 </r>
       <r>    8.7178   -0.0000 </r>
       <r>    9.2581   -0.0000 </r>
       <r>   10.2604   -0.0000 </r>
       <r>   10.2921   -0.0000 </r>
       <r>   11.2725   -0.0000 </r>
       <r>   11.8582   -0.0000 </r>
       <r>   12.1455    0.0000 </r>
      </set>
      <set comment="kpoint 44">
       <r>   -1.5569    1.0000 </r>
       <r>   -0.2733    1.0000 </r>
       <r>    2.2610    1.0000 </r>
       <r>    3.5148    1.0000 </r>
       <r>    5.9353    1.0000 </r>
       <r>    6.9991   -0.0114 </r>
       <r>    7.1496   -0.0006 </r>
       <r>    8.2308   -0.0000 </r>
       <r>    9.5767   -0.0000 </r>
       <r>   10.5727   -0.0000 </r>
       <r>   10.6044   -0.0000 </r>
       <r>   10.7857   -0.0000 </r>
       <r>   11.7211   -0.0000 </r>
       <r>   11.7749   -0.0000 </r>
      </set>
      <set comment="kpoint 45">
       <r>   -1.1729    1.0000 </r>
       <r>   -0.7449    1.0000 </r>
       <r>    2.6360    1.0000 </r>
       <r>    3.0541    1.0000 </r>
       <r>    6.2974    1.0220 </r>
       <r>    6.7021    0.1897 </r>
       <r>    7.3697   -0.0000 </r>
       <r>    7.7808   -0.0000 </r>
       <r>    9.9377   -0.0000 </r>
       <r>   10.3407   -0.0000 </r>
       <r>   10.9231   -0.0000 </r>
       <r>   10.9564   -0.0000 </r>
       <r>   11.3080   -0.0000 </r>
       <r>   11.3469   -0.0000 </r>
      </set>
      <set comment="kpoint 46">
       <r>   -1.9418    1.0000 </r>
       <r>    1.0437    1.0000 </r>
       <r>    1.0437    1.0000 </r>
       <r>    3.9751    1.0000 </r>
       <r>    5.5734    1.0000 </r>
       <r>    6.6261    0.4831 </r>
       <r>    8.4065   -0.0000 </r>
       <r>    8.4065   -0.0000 </r>
       <r>    9.4719   -0.0000 </r>
       <r>    9.4719   -0.0000 </r>
       <r>   11.0186   -0.0000 </r>
       <r>   11.0186   -0.0000 </r>
       <r>   11.2298   -0.0000 </r>
       <r>   12.2068    0.0000 </r>
      </set>
      <set comment="kpoint 47">
       <r>   -1.6474    1.0000 </r>
       <r>    0.4873    1.0000 </r>
       <r>    1.3327    1.0000 </r>
       <r>    3.4287    1.0000 </r>
       <r>    5.8501    1.0000 </r>
       <r>    6.9118   -0.0299 </r>
       <r>    7.8738   -0.0000 </r>
       <r>    8.6830   -0.0000 </r>
       <r>    8.9527   -0.0000 </r>
       <r>    9.7462   -0.0000 </r>
       <r>   10.7003   -0.0000 </r>
       <r>   11.2868   -0.0000 </r>
       <r>   11.7074   -0.0000 </r>
       <r>   12.0823    0.0000 </r>
      </set>
      <set comment="kpoint 48">
       <r>   -1.3084    1.0000 </r>
       <r>   -0.0267    1.0000 </r>
       <r>    1.6655    1.0000 </r>
       <r>    2.9239    1.0000 </r>
       <r>    6.1695    1.0031 </r>
       <r>    7.2398   -0.0001 </r>
       <r>    7.3837   -0.0000 </r>
       <r>    8.4674   -0.0000 </r>
       <r>    9.0019   -0.0000 </r>
       <r>   10.0611   -0.0000 </r>
       <r>   10.2126   -0.0000 </r>
       <r>   11.2407   -0.0000 </r>
       <r>   11.5928   -0.0000 </r>
       <r>   12.6798    0.0000 </r>
      </set>
      <set comment="kpoint 49">
       <r>   -0.9250    1.0000 </r>
       <r>   -0.4977    1.0000 </r>
       <r>    2.0419    1.0000 </r>
       <r>    2.4615    1.0000 </r>
       <r>    6.5316    0.8431 </r>
       <r>    6.9363   -0.0244 </r>
       <r>    7.6092   -0.0000 </r>
       <r>    8.0189   -0.0000 </r>
       <r>    9.3632   -0.0000 </r>
       <r>    9.7668   -0.0000 </r>
       <r>   10.4159   -0.0000 </r>
       <r>   10.8096   -0.0000 </r>
       <r>   11.9333   -0.0000 </r>
       <r>   12.3015    0.0000 </r>
      </set>
      <set comment="kpoint 50">
       <r>   -1.3535    1.0000 </r>
       <r>    0.7773    1.0000 </r>
       <r>    0.7773    1.0000 </r>
       <r>    2.8805    1.0000 </r>
       <r>    6.1269    1.0013 </r>
       <r>    7.1964   -0.0002 </r>
       <r>    8.1504   -0.0000 </r>
       <r>    8.1504   -0.0000 </r>
       <r>    9.2292   -0.0000 </r>
       <r>    9.2292   -0.0000 </r>
       <r>   10.1699   -0.0000 </r>
       <r>   11.2047   -0.0000 </r>
       <r>   12.3441    0.0000 </r>
       <r>   12.3441    0.0000 </r>
      </set>
      <set comment="kpoint 51">
       <r>   -1.0151    1.0000 </r>
       <r>    0.2642    1.0000 </r>
       <r>    1.1112    1.0000 </r>
       <r>    2.3740    1.0000 </r>
       <r>    6.4463    1.0077 </r>
       <r>    7.5231   -0.0000 </r>
       <r>    7.6603   -0.0000 </r>
       <r>    8.4695   -0.0000 </r>
       <r>    8.7458   -0.0000 </r>
       <r>    9.5465   -0.0000 </r>
       <r>    9.6814   -0.0000 </r>
       <r>   10.7348   -0.0000 </r>
       <r>   12.6399    0.0000 </r>
       <r>   13.4255    0.0000 </r>
      </set>
      <set comment="kpoint 52">
       <r>   -0.6325    1.0000 </r>
       <r>   -0.2059    1.0000 </r>
       <r>    1.4889    1.0000 </r>
       <r>    1.9100    1.0000 </r>
       <r>    6.8083   -0.0164 </r>
       <r>    7.2130   -0.0001 </r>
       <r>    7.8911   -0.0000 </r>
       <r>    8.2991   -0.0000 </r>
       <r>    8.8311   -0.0000 </r>
       <r>    9.2351   -0.0000 </r>
       <r>    9.9040   -0.0000 </r>
       <r>   10.3006   -0.0000 </r>
       <r>   12.9628    0.0000 </r>
       <r>   13.2945    0.0000 </r>
      </set>
      <set comment="kpoint 53">
       <r>   -0.6775    1.0000 </r>
       <r>    0.5992    1.0000 </r>
       <r>    0.5992    1.0000 </r>
       <r>    1.8659    1.0000 </r>
       <r>    6.7656    0.0342 </r>
       <r>    7.8483   -0.0000 </r>
       <r>    7.9796   -0.0000 </r>
       <r>    7.9796   -0.0000 </r>
       <r>    9.0654   -0.0000 </r>
       <r>    9.0654   -0.0000 </r>
       <r>    9.1924   -0.0000 </r>
       <r>   10.2618   -0.0000 </r>
       <r>   13.7027    0.0000 </r>
       <r>   13.7047    0.0000 </r>
      </set>
      <set comment="kpoint 54">
       <r>   -0.2956    1.0000 </r>
       <r>    0.1301    1.0000 </r>
       <r>    0.9781    1.0000 </r>
       <r>    1.4004    1.0000 </r>
       <r>    7.1277   -0.0010 </r>
       <r>    7.5324   -0.0000 </r>
       <r>    8.2146   -0.0000 </r>
       <r>    8.3414   -0.0000 </r>
       <r>    8.6208   -0.0000 </r>
       <r>    8.7456   -0.0000 </r>
       <r>    9.4254   -0.0000 </r>
       <r>    9.8247   -0.0000 </r>
       <r>   13.9875    0.0000 </r>
       <r>   14.2181    0.0000 </r>
      </set>
      <set comment="kpoint 55">
       <r>    0.0854    1.0000 </r>
       <r>    0.5101    1.0000 </r>
       <r>    0.5101    1.0000 </r>
       <r>    0.9336    1.0000 </r>
       <r>    7.4897   -0.0000 </r>
       <r>    7.8942   -0.0000 </r>
       <r>    7.8942   -0.0000 </r>
       <r>    8.2987   -0.0000 </r>
       <r>    8.5790   -0.0000 </r>
       <r>    8.9831   -0.0000 </r>
       <r>    8.9831   -0.0000 </r>
       <r>    9.3849   -0.0000 </r>
       <r>   14.8683    0.0000 </r>
       <r>   14.9369    0.0000 </r>
      </set>
      <set comment="kpoint 56">
       <r>   -3.5134    1.0000 </r>
       <r>    3.6271    1.0000 </r>
       <r>    3.6271    1.0000 </r>
       <r>    3.6271    1.0000 </r>
       <r>    5.5639    1.0000 </r>
       <r>    5.5639    1.0000 </r>
       <r>    5.5639    1.0000 </r>
       <r>   10.4634   -0.0000 </r>
       <r>   10.4634   -0.0000 </r>
       <r>   10.4634   -0.0000 </r>
       <r>   11.6840   -0.0000 </r>
       <r>   11.6840   -0.0000 </r>
       <r>   11.6840   -0.0000 </r>
       <r>   12.6972    0.0000 </r>
      </set>
      <set comment="kpoint 57">
       <r>   -3.4447    1.0000 </r>
       <r>    2.9162    1.0000 </r>
       <r>    3.6920    1.0000 </r>
       <r>    3.6920    1.0000 </r>
       <r>    5.6303    1.0000 </r>
       <r>    5.6303    1.0000 </r>
       <r>    6.3956    1.0340 </r>
       <r>    9.7686   -0.0000 </r>
       <r>    9.7686   -0.0000 </r>
       <r>   10.5266   -0.0000 </r>
       <r>   11.4193   -0.0000 </r>
       <r>   11.4193   -0.0000 </r>
       <r>   11.7437   -0.0000 </r>
       <r>   12.7623    0.0000 </r>
      </set>
      <set comment="kpoint 58">
       <r>   -3.3304    1.0000 </r>
       <r>    2.2067    1.0000 </r>
       <r>    3.8003    1.0000 </r>
       <r>    3.8003    1.0000 </r>
       <r>    5.7407    1.0000 </r>
       <r>    5.7407    1.0000 </r>
       <r>    7.3063   -0.0000 </r>
       <r>    9.0847   -0.0000 </r>
       <r>    9.0847   -0.0000 </r>
       <r>   10.6318   -0.0000 </r>
       <r>   10.8903   -0.0000 </r>
       <r>   10.8903   -0.0000 </r>
       <r>   11.8433   -0.0000 </r>
       <r>   12.8707    0.0000 </r>
      </set>
      <set comment="kpoint 59">
       <r>   -3.1704    1.0000 </r>
       <r>    1.5278    1.0000 </r>
       <r>    3.9517    1.0000 </r>
       <r>    3.9517    1.0000 </r>
       <r>    5.8952    1.0000 </r>
       <r>    5.8952    1.0000 </r>
       <r>    8.2662   -0.0000 </r>
       <r>    8.4323   -0.0000 </r>
       <r>    8.4323   -0.0000 </r>
       <r>   10.3118   -0.0000 </r>
       <r>   10.3118   -0.0000 </r>
       <r>   10.7790   -0.0000 </r>
       <r>   11.9827   -0.0000 </r>
       <r>   13.0223    0.0000 </r>
      </set>
      <set comment="kpoint 60">
       <r>   -2.9650    1.0000 </r>
       <r>    0.8866    1.0000 </r>
       <r>    4.1463    1.0000 </r>
       <r>    4.1463    1.0000 </r>
       <r>    6.0934    1.0006 </r>
       <r>    6.0934    1.0006 </r>
       <r>    7.8172   -0.0000 </r>
       <r>    7.8172   -0.0000 </r>
       <r>    9.2678   -0.0000 </r>
       <r>    9.7369   -0.0000 </r>
       <r>    9.7369   -0.0000 </r>
       <r>   10.9681   -0.0000 </r>
       <r>   12.1620    0.0000 </r>
       <r>   13.2171    0.0000 </r>
      </set>
      <set comment="kpoint 61">
       <r>   -2.7142    1.0000 </r>
       <r>    0.2857    1.0000 </r>
       <r>    4.3840    1.0000 </r>
       <r>    4.3840    1.0000 </r>
       <r>    6.3350    1.0304 </r>
       <r>    6.3350    1.0304 </r>
       <r>    7.2418   -0.0001 </r>
       <r>    7.2418   -0.0001 </r>
       <r>    9.1841   -0.0000 </r>
       <r>    9.1841   -0.0000 </r>
       <r>   10.3074   -0.0000 </r>
       <r>   11.1990   -0.0000 </r>
       <r>   12.3811    0.0000 </r>
       <r>   13.4547    0.0000 </r>
      </set>
      <set comment="kpoint 62">
       <r>   -2.4184    1.0000 </r>
       <r>   -0.2734    1.0000 </r>
       <r>    4.6646    1.0000 </r>
       <r>    4.6646    1.0000 </r>
       <r>    6.6193    0.5119 </r>
       <r>    6.6193    0.5119 </r>
       <r>    6.7075    0.1727 </r>
       <r>    6.7075    0.1727 </r>
       <r>    8.6618   -0.0000 </r>
       <r>    8.6618   -0.0000 </r>
       <r>   11.3807   -0.0000 </r>
       <r>   11.4729   -0.0000 </r>
       <r>   12.6401    0.0000 </r>
       <r>   13.4499    0.0000 </r>
      </set>
      <set comment="kpoint 63">
       <r>   -2.0777    1.0000 </r>
       <r>   -0.7899    1.0000 </r>
       <r>    4.9881    1.0000 </r>
       <r>    4.9881    1.0000 </r>
       <r>    6.2142    1.0070 </r>
       <r>    6.2142    1.0070 </r>
       <r>    6.9467   -0.0220 </r>
       <r>    6.9467   -0.0220 </r>
       <r>    8.1747   -0.0000 </r>
       <r>    8.1747   -0.0000 </r>
       <r>   11.7845   -0.0000 </r>
       <r>   12.4887    0.0000 </r>
       <r>   12.9389    0.0000 </r>
       <r>   12.9695    0.0000 </r>
      </set>
      <set comment="kpoint 64">
       <r>   -1.6925    1.0000 </r>
       <r>   -1.2631    1.0000 </r>
       <r>    5.3542    1.0000 </r>
       <r>    5.3542    1.0000 </r>
       <r>    5.7632    1.0000 </r>
       <r>    5.7632    1.0000 </r>
       <r>    7.3156   -0.0000 </r>
       <r>    7.3156   -0.0000 </r>
       <r>    7.7254   -0.0000 </r>
       <r>    7.7254   -0.0000 </r>
       <r>   12.1392    0.0000 </r>
       <r>   12.5343    0.0000 </r>
       <r>   13.2777    0.0000 </r>
       <r>   13.6373    0.0000 </r>
      </set>
      <set comment="kpoint 65">
       <r>   -3.3761    1.0000 </r>
       <r>    2.9818    1.0000 </r>
       <r>    2.9818    1.0000 </r>
       <r>    3.7570    1.0000 </r>
       <r>    5.6965    1.0000 </r>
       <r>    6.4612    0.9912 </r>
       <r>    6.4612    0.9912 </r>
[...]
       <r>    0.4200    1.0000 </r>
       <r>    1.6872    1.0000 </r>
       <r>    1.6872    1.0000 </r>
       <r>    2.5185    1.0000 </r>
       <r>    2.9590    1.0000 </r>
       <r>    3.7842    1.0000 </r>
       <r>    3.7842    1.0000 </r>
       <r>    5.0269    1.0000 </r>
       <r>   13.9155    0.0000 </r>
       <r>   14.6443    0.0000 </r>
       <r>   14.6443    0.0000 </r>
       <r>   14.8629    0.0000 </r>
       <r>   14.8630    0.0000 </r>
       <r>   15.1446    0.0000 </r>
      </set>
      <set comment="kpoint 215">
       <r>    0.7991    1.0000 </r>
       <r>    1.2217    1.0000 </r>
       <r>    2.0621    1.0000 </r>
       <r>    2.4744    1.0000 </r>
       <r>    2.9152    1.0000 </r>
       <r>    3.3255    1.0000 </r>
       <r>    4.1557    1.0000 </r>
       <r>    4.5701    1.0000 </r>
       <r>   14.2328    0.0000 </r>
       <r>   14.5538    0.0000 </r>
       <r>   14.9612    0.0000 </r>
       <r>   15.1670    0.0000 </r>
       <r>   15.1872    0.0000 </r>
       <r>   15.5754    0.0000 </r>
      </set>
      <set comment="kpoint 216">
       <r>    1.1772    1.0000 </r>
       <r>    1.5985    1.0000 </r>
       <r>    1.5985    1.0000 </r>
       <r>    2.0178    1.0000 </r>
       <r>    3.2818    1.0000 </r>
       <r>    3.6971    1.0000 </r>
       <r>    3.6971    1.0000 </r>
       <r>    4.1122    1.0000 </r>
       <r>   14.5524    0.0000 </r>
       <r>   14.8817    0.0000 </r>
       <r>   14.8817    0.0000 </r>
       <r>   15.2196    0.0000 </r>
       <r>   15.8069    0.0000 </r>
       <r>   15.8767    0.0000 </r>
      </set>
      <set comment="kpoint 217">
       <r>    0.7545    1.0000 </r>
       <r>    2.0177    1.0000 </r>
       <r>    2.0177    1.0000 </r>
       <r>    2.0177    1.0000 </r>
       <r>    3.2821    1.0000 </r>
       <r>    3.2821    1.0000 </r>
       <r>    3.2821    1.0000 </r>
       <r>    4.5269    1.0000 </r>
       <r>   14.9313    0.0000 </r>
       <r>   14.9313    0.0000 </r>
       <r>   14.9313    0.0000 </r>
       <r>   15.4386    0.0000 </r>
       <r>   15.4386    0.0000 </r>
       <r>   15.4387    0.0000 </r>
      </set>
      <set comment="kpoint 218">
       <r>    1.1327    1.0000 </r>
       <r>    1.5541    1.0000 </r>
       <r>    2.3855    1.0000 </r>
       <r>    2.3855    1.0000 </r>
       <r>    2.8284    1.0000 </r>
       <r>    2.8284    1.0000 </r>
       <r>    3.6537    1.0000 </r>
       <r>    4.0689    1.0000 </r>
       <r>   15.2067    0.0000 </r>
       <r>   15.2071    0.0000 </r>
       <r>   15.4847    0.0000 </r>
       <r>   15.4852    0.0000 </r>
       <r>   15.7716    0.0000 </r>
       <r>   15.9215    0.0000 </r>
      </set>
      <set comment="kpoint 219">
       <r>    1.5097    1.0000 </r>
       <r>    1.9291    1.0000 </r>
       <r>    1.9291    1.0000 </r>
       <r>    2.3410    1.0000 </r>
       <r>    2.7848    1.0000 </r>
       <r>    3.1947    1.0000 </r>
       <r>    3.1947    1.0000 </r>
       <r>    3.6101    1.0000 </r>
       <r>   15.5099    0.0000 </r>
       <r>   15.7636    0.0000 </r>
       <r>   15.7670    0.0000 </r>
       <r>   16.0800    0.0000 </r>
       <r>   16.1239    0.0000 </r>
       <r>   16.1354    0.0000 </r>
      </set>
      <set comment="kpoint 220">
       <r>    1.8848    1.0000 </r>
       <r>    2.2965    1.0000 </r>
       <r>    2.2965    1.0000 </r>
       <r>    2.2965    1.0000 </r>
       <r>    2.7414    1.0000 </r>
       <r>    2.7414    1.0000 </r>
       <r>    2.7414    1.0000 </r>
       <r>    3.1511    1.0000 </r>
       <r>   16.3461    0.0000 </r>
       <r>   16.3468    0.0000 </r>
       <r>   16.3480    0.0000 </r>
       <r>   16.3798    0.0000 </r>
       <r>   16.3882    0.0000 </r>
       <r>   16.5015    0.0000 </r>
      </set>
     </set>
    </set>
   </array>
  </eigenvalues>
  <separator name="orbital magnetization" >
   <v name="MAGDIPOLOUT">      0.00000000      0.00000000      0.00000000</v>
  </separator>
  <dos>
   <i name="efermi">      6.62212596 </i>
   <total>
    <array>
     <dimension dim="1">gridpoints</dimension>
     <dimension dim="2">spin</dimension>
     <field>energy</field>
     <field>total</field>
     <field>integrated</field>
     <set>
      <set comment="spin 1">
       <r>    -5.5821     0.0000     0.0000 </r>
       <r>    -5.5018     0.0000     0.0000 </r>
       <r>    -5.4215     0.0000     0.0000 </r>
       <r>    -5.3412     0.0000     0.0000 </r>
       <r>    -5.2610    -0.0000    -0.0000 </r>
       <r>    -5.1807    -0.0000    -0.0000 </r>
       <r>    -5.1004    -0.0000    -0.0000 </r>
       <r>    -5.0201    -0.0000    -0.0000 </r>
       <r>    -4.9398    -0.0000    -0.0000 </r>
       <r>    -4.8596    -0.0000    -0.0000 </r>
       <r>    -4.7793    -0.0000    -0.0000 </r>
       <r>    -4.6990    -0.0000    -0.0000 </r>
       <r>    -4.6187    -0.0000    -0.0000 </r>
       <r>    -4.5385    -0.0000    -0.0000 </r>
       <r>    -4.4582    -0.0000    -0.0000 </r>
       <r>    -4.3779    -0.0000    -0.0000 </r>
       <r>    -4.2976    -0.0000    -0.0000 </r>
       <r>    -4.2173    -0.0000    -0.0000 </r>
       <r>    -4.1371    -0.0000    -0.0000 </r>
       <r>    -4.0568    -0.0001    -0.0000 </r>
       <r>    -3.9765    -0.0005    -0.0000 </r>
       <r>    -3.8962    -0.0019    -0.0002 </r>
       <r>    -3.8159    -0.0048    -0.0006 </r>
       <r>    -3.7357    -0.0061    -0.0011 </r>
       <r>    -3.6554     0.0044    -0.0007 </r>
       <r>    -3.5751     0.0396     0.0025 </r>
       <r>    -3.4948     0.1007     0.0105 </r>
       <r>    -3.4146     0.1721     0.0244 </r>
       <r>    -3.3343     0.2354     0.0433 </r>
       <r>    -3.2540     0.2844     0.0661 </r>
       <r>    -3.1737     0.3228     0.0920 </r>
       <r>    -3.0934     0.3557     0.1206 </r>
       <r>    -3.0132     0.3868     0.1516 </r>
       <r>    -2.9329     0.4154     0.1850 </r>
       <r>    -2.8526     0.4400     0.2203 </r>
       <r>    -2.7723     0.4658     0.2577 </r>
       <r>    -2.6920     0.4939     0.2973 </r>
       <r>    -2.6118     0.5147     0.3386 </r>
       <r>    -2.5315     0.5298     0.3812 </r>
       <r>    -2.4512     0.5555     0.4258 </r>
       <r>    -2.3709     0.5863     0.4728 </r>
       <r>    -2.2907     0.6001     0.5210 </r>
       <r>    -2.2104     0.6055     0.5696 </r>
       <r>    -2.1301     0.6284     0.6201 </r>
       <r>    -2.0498     0.6629     0.6733 </r>
       <r>    -1.9695     0.6840     0.7282 </r>
       <r>    -1.8893     0.6869     0.7833 </r>
       <r>    -1.8090     0.6877     0.8385 </r>
       <r>    -1.7287     0.7087     0.8954 </r>
       <r>    -1.6484     0.7534     0.9559 </r>
       <r>    -1.5681     0.7842     1.0189 </r>
       <r>    -1.4879     0.7699     1.0807 </r>
       <r>    -1.4076     0.7497     1.1409 </r>
       <r>    -1.3273     0.7788     1.2034 </r>
       <r>    -1.2470     0.8360     1.2705 </r>
       <r>    -1.1668     0.8627     1.3398 </r>
       <r>    -1.0865     0.8531     1.4083 </r>
       <r>    -1.0062     0.8425     1.4759 </r>
       <r>    -0.9259     0.8491     1.5440 </r>
       <r>    -0.8456     0.8698     1.6139 </r>
       <r>    -0.7654     0.9029     1.6864 </r>
       <r>    -0.6851     0.9416     1.7619 </r>
       <r>    -0.6048     0.9641     1.8393 </r>
       <r>    -0.5245     0.9509     1.9157 </r>
       <r>    -0.4442     0.9128     1.9890 </r>
       <r>    -0.3640     0.9033     2.0615 </r>
       <r>    -0.2837     0.9654     2.1390 </r>
       <r>    -0.2034     1.0534     2.2235 </r>
       <r>    -0.1231     1.0739     2.3098 </r>
       <r>    -0.0429     1.0190     2.3916 </r>
       <r>     0.0374     0.9746     2.4698 </r>
       <r>     0.1177     0.9930     2.5495 </r>
       <r>     0.1980     1.0460     2.6335 </r>
       <r>     0.2783     1.0864     2.7207 </r>
       <r>     0.3585     1.0962     2.8087 </r>
       <r>     0.4388     1.1008     2.8971 </r>
       <r>     0.5191     1.1265     2.9875 </r>
       <r>     0.5994     1.1381     3.0789 </r>
       <r>     0.6797     1.1012     3.1673 </r>
       <r>     0.7599     1.0677     3.2530 </r>
       <r>     0.8402     1.0953     3.3409 </r>
       <r>     0.9205     1.1623     3.4342 </r>
       <r>     1.0008     1.2274     3.5328 </r>
       <r>     1.0810     1.2647     3.6343 </r>
       <r>     1.1613     1.2398     3.7338 </r>
       <r>     1.2416     1.1624     3.8271 </r>
       <r>     1.3219     1.1135     3.9165 </r>
       <r>     1.4022     1.1467     4.0086 </r>
       <r>     1.4824     1.2340     4.1077 </r>
       <r>     1.5627     1.3169     4.2134 </r>
       <r>     1.6430     1.3434     4.3212 </r>
       <r>     1.7233     1.2961     4.4253 </r>
       <r>     1.8036     1.2355     4.5245 </r>
       <r>     1.8838     1.2445     4.6244 </r>
       <r>     1.9641     1.3052     4.7291 </r>
       <r>     2.0444     1.3251     4.8355 </r>
       <r>     2.1247     1.2898     4.9391 </r>
       <r>     2.2049     1.2775     5.0416 </r>
       <r>     2.2852     1.3304     5.1484 </r>
       <r>     2.3655     1.4108     5.2617 </r>
       <r>     2.4458     1.4596     5.3789 </r>
       <r>     2.5261     1.4420     5.4946 </r>
       <r>     2.6063     1.3719     5.6048 </r>
       <r>     2.6866     1.3006     5.7092 </r>
       <r>     2.7669     1.2752     5.8115 </r>
       <r>     2.8472     1.3263     5.9180 </r>
       <r>     2.9275     1.4441     6.0339 </r>
       <r>     3.0077     1.5469     6.1581 </r>
       <r>     3.0880     1.5550     6.2830 </r>
       <r>     3.1683     1.4937     6.4029 </r>
       <r>     3.2486     1.4415     6.5186 </r>
       <r>     3.3289     1.4206     6.6326 </r>
       <r>     3.4091     1.4147     6.7462 </r>
       <r>     3.4894     1.4347     6.8614 </r>
       <r>     3.5697     1.5082     6.9825 </r>
       <r>     3.6500     1.6148     7.1121 </r>
       <r>     3.7302     1.6555     7.2450 </r>
       <r>     3.8105     1.5752     7.3714 </r>
       <r>     3.8908     1.4897     7.4910 </r>
       <r>     3.9711     1.5395     7.6146 </r>
       <r>     4.0514     1.6705     7.7487 </r>
       <r>     4.1316     1.7321     7.8878 </r>
       <r>     4.2119     1.7043     8.0246 </r>
       <r>     4.2922     1.6588     8.1578 </r>
       <r>     4.3725     1.6061     8.2867 </r>
       <r>     4.4528     1.5360     8.4100 </r>
       <r>     4.5330     1.5129     8.5315 </r>
       <r>     4.6133     1.5916     8.6592 </r>
       <r>     4.6936     1.6901     8.7949 </r>
       <r>     4.7739     1.6698     8.9290 </r>
       <r>     4.8541     1.5324     9.0520 </r>
       <r>     4.9344     1.4272     9.1666 </r>
       <r>     5.0147     1.4570     9.2835 </r>
       <r>     5.0950     1.5612     9.4089 </r>
       <r>     5.1753     1.6174     9.5387 </r>
       <r>     5.2555     1.6096     9.6679 </r>
       <r>     5.3358     1.6121     9.7973 </r>
       <r>     5.4161     1.6295     9.9281 </r>
       <r>     5.4964     1.6104    10.0574 </r>
       <r>     5.5767     1.5873    10.1848 </r>
       <r>     5.6569     1.6338    10.3160 </r>
       <r>     5.7372     1.7310    10.4550 </r>
       <r>     5.8175     1.7901    10.5987 </r>
       <r>     5.8978     1.7692    10.7407 </r>
       <r>     5.9780     1.7180    10.8786 </r>
       <r>     6.0583     1.6968    11.0148 </r>
       <r>     6.1386     1.6866    11.1502 </r>
       <r>     6.2189     1.6483    11.2826 </r>
       <r>     6.2992     1.6220    11.4128 </r>
       <r>     6.3794     1.6656    11.5465 </r>
       <r>     6.4597     1.7694    11.6885 </r>
       <r>     6.5400     1.8832    11.8397 </r>
       <r>     6.6203     1.9516    11.9964 </r>
       <r>     6.7006     1.9376    12.1519 </r>
       <r>     6.7808     1.8511    12.3005 </r>
       <r>     6.8611     1.7336    12.4397 </r>
       <r>     6.9414     1.6330    12.5708 </r>
       <r>     7.0217     1.6129    12.7003 </r>
       <r>     7.1019     1.7256    12.8388 </r>
       <r>     7.1822     1.9150    12.9925 </r>
       <r>     7.2625     2.0299    13.1555 </r>
       <r>     7.3428     1.9986    13.3159 </r>
       <r>     7.4231     1.8857    13.4673 </r>
       <r>     7.5033     1.7717    13.6096 </r>
       <r>     7.5836     1.7258    13.7481 </r>
       <r>     7.6639     1.8227    13.8944 </r>
       <r>     7.7442     2.0226    14.0568 </r>
       <r>     7.8245     2.1398    14.2286 </r>
       <r>     7.9047     2.0474    14.3929 </r>
       <r>     7.9850     1.8285    14.5397 </r>
       <r>     8.0653     1.6787    14.6745 </r>
       <r>     8.1456     1.7091    14.8117 </r>
       <r>     8.2258     1.8680    14.9617 </r>
       <r>     8.3061     2.0328    15.1249 </r>
       <r>     8.3864     2.1262    15.2955 </r>
       <r>     8.4667     2.1324    15.4667 </r>
       <r>     8.5470     2.0726    15.6331 </r>
       <r>     8.6272     2.0066    15.7942 </r>
       <r>     8.7075     1.9876    15.9538 </r>
       <r>     8.7878     1.9853    16.1131 </r>
       <r>     8.8681     1.9418    16.2690 </r>
       <r>     8.9484     1.8993    16.4215 </r>
       <r>     9.0286     1.9420    16.5774 </r>
       <r>     9.1089     2.0379    16.7410 </r>
       <r>     9.1892     2.0765    16.9077 </r>
       <r>     9.2695     2.0506    17.0723 </r>
       <r>     9.3497     2.0739    17.2388 </r>
       <r>     9.4300     2.1752    17.4134 </r>
       <r>     9.5103     2.2145    17.5912 </r>
       <r>     9.5906     2.1142    17.7609 </r>
       <r>     9.6709     2.0155    17.9227 </r>
       <r>     9.7511     2.0618    18.0882 </r>
       <r>     9.8314     2.1846    18.2636 </r>
       <r>     9.9117     2.2339    18.4430 </r>
       <r>     9.9920     2.1625    18.6166 </r>
       <r>    10.0723     2.0225    18.7789 </r>
       <r>    10.1525     1.9334    18.9341 </r>
       <r>    10.2328     2.0180    19.0961 </r>
       <r>    10.3131     2.2352    19.2756 </r>
       <r>    10.3934     2.3866    19.4672 </r>
       <r>    10.4736     2.3643    19.6570 </r>
       <r>    10.5539     2.2488    19.8375 </r>
       <r>    10.6342     2.1791    20.0124 </r>
       <r>    10.7145     2.2246    20.1910 </r>
       <r>    10.7948     2.3196    20.3773 </r>
       <r>    10.8750     2.3411    20.5652 </r>
       <r>    10.9553     2.2755    20.7479 </r>
       <r>    11.0356     2.1984    20.9244 </r>
       <r>    11.1159     2.1591    21.0977 </r>
       <r>    11.1962     2.1979    21.2741 </r>
       <r>    11.2764     2.3312    21.4613 </r>
       <r>    11.3567     2.4681    21.6594 </r>
       <r>    11.4370     2.5094    21.8609 </r>
       <r>    11.5173     2.4931    22.0610 </r>
       <r>    11.5975     2.5067    22.2622 </r>
       <r>    11.6778     2.5564    22.4675 </r>
       <r>    11.7581     2.6111    22.6771 </r>
       <r>    11.8384     2.6548    22.8902 </r>
       <r>    11.9187     2.6592    23.1037 </r>
       <r>    11.9989     2.5951    23.3120 </r>
       <r>    12.0792     2.4701    23.5103 </r>
       <r>    12.1595     2.3287    23.6972 </r>
       <r>    12.2398     2.2379    23.8769 </r>
       <r>    12.3201     2.2368    24.0565 </r>
       <r>    12.4003     2.2927    24.2405 </r>
       <r>    12.4806     2.3577    24.4298 </r>
       <r>    12.5609     2.4171    24.6238 </r>
       <r>    12.6412     2.4303    24.8189 </r>
       <r>    12.7214     2.3319    25.0061 </r>
       <r>    12.8017     2.1490    25.1787 </r>
       <r>    12.8820     2.0000    25.3392 </r>
       <r>    12.9623     1.9345    25.4945 </r>
       <r>    13.0426     1.8877    25.6460 </r>
       <r>    13.1228     1.8126    25.7916 </r>
       <r>    13.2031     1.7510    25.9321 </r>
       <r>    13.2834     1.7446    26.0722 </r>
       <r>    13.3637     1.7544    26.2130 </r>
       <r>    13.4440     1.7099    26.3503 </r>
       <r>    13.5242     1.6025    26.4789 </r>
       <r>    13.6045     1.4992    26.5993 </r>
       <r>    13.6848     1.4436    26.7152 </r>
       <r>    13.7651     1.3807    26.8260 </r>
       <r>    13.8453     1.2492    26.9263 </r>
       <r>    13.9256     1.0897    27.0138 </r>
       <r>    14.0059     0.9744    27.0920 </r>
       <r>    14.0862     0.9198    27.1658 </r>
       <r>    14.1665     0.9125    27.2391 </r>
       <r>    14.2467     0.9085    27.3120 </r>
       <r>    14.3270     0.8312    27.3788 </r>
       <r>    14.4073     0.6837    27.4337 </r>
       <r>    14.4876     0.5770    27.4800 </r>
       <r>    14.5679     0.5552    27.5245 </r>
       <r>    14.6481     0.5277    27.5669 </r>
       <r>    14.7284     0.4464    27.6027 </r>
       <r>    14.8087     0.3972    27.6346 </r>
       <r>    14.8890     0.4435    27.6702 </r>
       <r>    14.9692     0.5054    27.7108 </r>
       <r>    15.0495     0.4932    27.7504 </r>
       <r>    15.1298     0.4347    27.7853 </r>
       <r>    15.2101     0.3739    27.8153 </r>
       <r>    15.2904     0.2998    27.8394 </r>
       <r>    15.3706     0.2316    27.8580 </r>
       <r>    15.4509     0.2133    27.8751 </r>
       <r>    15.5312     0.2240    27.8931 </r>
       <r>    15.6115     0.2135    27.9102 </r>
       <r>    15.6918     0.1844    27.9250 </r>
       <r>    15.7720     0.1646    27.9382 </r>
       <r>    15.8523     0.1485    27.9502 </r>
       <r>    15.9326     0.1203    27.9598 </r>
       <r>    16.0129     0.0943    27.9674 </r>
       <r>    16.0932     0.0865    27.9743 </r>
       <r>    16.1734     0.0826    27.9810 </r>
       <r>    16.2537     0.0697    27.9866 </r>
       <r>    16.3340     0.0579    27.9912 </r>
       <r>    16.4143     0.0507    27.9953 </r>
       <r>    16.4945     0.0381    27.9983 </r>
       <r>    16.5748     0.0195    27.9999 </r>
       <r>    16.6551     0.0051    28.0003 </r>
       <r>    16.7354    -0.0010    28.0002 </r>
       <r>    16.8157    -0.0016    28.0001 </r>
       <r>    16.8959    -0.0008    28.0000 </r>
       <r>    16.9762    -0.0003    28.0000 </r>
       <r>    17.0565    -0.0001    28.0000 </r>
       <r>    17.1368    -0.0000    28.0000 </r>
       <r>    17.2171    -0.0000    28.0000 </r>
       <r>    17.2973    -0.0000    28.0000 </r>
       <r>    17.3776    -0.0000    28.0000 </r>
       <r>    17.4579    -0.0000    28.0000 </r>
       <r>    17.5382    -0.0000    28.0000 </r>
       <r>    17.6184    -0.0000    28.0000 </r>
       <r>    17.6987    -0.0000    28.0000 </r>
       <r>    17.7790    -0.0000    28.0000 </r>
       <r>    17.8593     0.0000    28.0000 </r>
       <r>    17.9396     0.0000    28.0000 </r>
       <r>    18.0198     0.0000    28.0000 </r>
       <r>    18.1001     0.0000    28.0000 </r>
       <r>    18.1804     0.0000    28.0000 </r>
       <r>    18.2607     0.0000    28.0000 </r>
       <r>    18.3410     0.0000    28.0000 </r>
       <r>    18.4212     0.0000    28.0000 </r>
       <r>    18.5015     0.0000    28.0000 </r>
      </set>
     </set>
    </array>
   </total>
  </dos>
 </calculation>
 <structure name="finalpos" >
  <crystal>
   <varray name="basis" >
    <v>       4.23154445       0.00000000       0.00000000 </v>
    <v>      -0.00000000       4.23154445       0.00000000 </v>
    <v>       0.00000000       0.00000000       4.23154445 </v>
   </varray>
   <i name="volume">     75.76990110 </i>
   <varray name="rec_basis" >
    <v>       0.23632033       0.00000000      -0.00000000 </v>
    <v>       0.00000000       0.23632033       0.00000000 </v>
    <v>      -0.00000000      -0.00000000       0.23632033 </v>
   </varray>
  </crystal>
  <varray name="positions" >
   <v>       0.00000000       0.00000000       0.00000000 </v>
   <v>       0.00000000       0.50000000       0.50000000 </v>
   <v>       0.50000000       0.00000000       0.50000000 </v>
   <v>       0.50000000       0.50000000       0.00000000 </v>
  </varray>
 </structure>
</modeling>
