
16 atoms
1 atom types
   0.0000000000    2.8545447841 xlo xhi
   0.0000000000    6.9921781690 ylo yhi
   0.0000000000   26.3691551924 zlo zhi
  -0.0000000000    0.0100000000   -2.3307260563 xy xz yz

Atoms # atomic

     1      1    2.8634510341    2.6220668134   23.4850288433
     2      1    0.0095312500    0.2913407571   25.1331010428
     3      1    1.4364911421   -2.0393852993   24.3090649430
     4      1    1.4371161421    2.6220668134   25.9571371425
     5      1    2.8622010341    0.2913407571   20.1888844442
     6      1    0.0082812500    4.9527928698   21.8369566438
     7      1    1.4352411421    2.6220668134   21.0129205440
     8      1    1.4358661421    0.2913407571   22.6609927435
     9      1    2.8609510341    4.9527928698   16.8927400452
    10      1    0.0070312500    2.6220668134   18.5408122447
    11      1    1.4339911421    0.2913407571   17.7167761449
    12      1    1.4346161421    4.9527928698   19.3648483444
    13      1    2.8597010341    2.6220668134   13.5965956461
    14      1    0.0057812500    0.2913407571   15.2446678456
    15      1    1.4327411421    4.9527928698   14.4206317458
    16      1    1.4333661421    2.6220668134   16.0687039454
