ITEM: TIMESTEP
0
ITEM: NUMBER OF ATOMS
16
ITEM: BOX BOUNDS xy xz yz pp pp pp
0.0000000000000000e+00 2.8645447840999996e+00 -0.0000000000000000e+00
-2.3307260563000001e+00 6.9921781689999998e+00 1.0000000000000000e-02
0.0000000000000000e+00 2.6369155192400001e+01 -2.3307260563000001e+00
ITEM: ATOMS id type xs ys zs fx fy fz
11 1 0.5 0.265625 0.671875 -3.5835e-05 0.0103248 -9.72855e-06
14 1 8.29198e-16 0.234375 0.578125 0.000467644 -0.0387177 -0.226326
5 1 1 0.296875 0.765625 -3.15592e-06 -0.00956457 0.0102198
2 1 1 0.359375 0.953125 -0.000483952 -0.00523001 0.127442
3 1 0.5 0.015625 0.921875 -0.000467644 0.0387177 0.226326
8 1 0.5 0.328125 0.859375 1.29773e-05 0.0397799 -0.0550567
13 1 1 0.546875 0.515625 0.000653306 0.0825287 0.187671
15 1 0.5 0.890625 0.546875 0.000483952 0.00523 -0.127442
9 1 1 0.921875 0.640625 -1.29773e-05 -0.0397799 0.0550567
10 1 1 0.609375 0.703125 1.31169e-05 0.0181006 -0.040058
16 1 0.5 0.578125 0.609375 -7.43405e-05 -0.0552886 0.0661897
6 1 1 0.984375 0.828125 3.5835e-05 -0.0103248 9.72812e-06
7 1 0.5 0.640625 0.796875 -1.31169e-05 -0.0181006 0.040058
12 1 0.5 0.953125 0.734375 3.15592e-06 0.00956457 -0.0102198
1 1 1 0.671875 0.890625 7.43405e-05 0.0552886 -0.0661897
4 1 0.5 0.703125 0.984375 -0.000653306 -0.0825287 -0.187671
