ITEM: TIMESTEP
0
ITEM: NUMBER OF ATOMS
4
ITEM: BOX BOUNDS xy xz yz pp pp pp
0.0000000000000000e+00 4.0319999997000000e+00 0.0000000000000000e+00
0.0000000000000000e+00 4.0721203908000003e+00 0.0000000000000000e+00
0.0000000000000000e+00 4.0319999997000000e+00 0.0000000000000000e+00
ITEM: ATOMS id type xs ys zs fx fy fz
1 1 0 0 0 -2.23221e-10 2.08167e-17 -2.23221e-10
4 1 0.5 0 0.5 2.23221e-10 2.25514e-17 2.23221e-10
2 1 0 0.5 0.5 -2.23221e-10 0 2.23221e-10
3 1 0.5 0.5 0 2.23221e-10 1.47451e-17 -2.23221e-10
ITEM: TIMESTEP
1
ITEM: NUMBER OF ATOMS
4
ITEM: BOX BOUNDS xy xz yz pp pp pp
0.0000000000000000e+00 4.0319999997000000e+00 0.0000000000000000e+00
0.0000000000000000e+00 4.0721203908000003e+00 0.0000000000000000e+00
0.0000000000000000e+00 4.0319999997000000e+00 0.0000000000000000e+00
ITEM: ATOMS id type xs ys zs fx fy fz
4 1 0.5 6.20235e-19 0.5 9.05526e-16 0 9.41955e-16
1 1 1 5.72525e-19 1 -9.15934e-16 2.60209e-17 -9.33281e-16
2 1 1 0.5 0.5 -9.4369e-16 -1.56125e-17 9.74915e-16
3 1 0.5 0.5 1 9.12465e-16 1.38778e-17 -9.1073e-16
