ITEM: TIMESTEP
0
ITEM: NUMBER OF ATOMS
4
ITEM: BOX BOUNDS xy xz yz pp pp pp
0.0000000000000000e+00 4.0904988758999998e+00 4.0499988899999999e-02
0.0000000000000000e+00 4.0497963820000002e+00 0.0000000000000000e+00
0.0000000000000000e+00 4.0499988870000001e+00 0.0000000000000000e+00
ITEM: ATOMS id type xs ys zs fx fy fz
1 1 0 0 0 -1.65279e-10 1.71928e-11 1.0285e-16
4 1 0.5 0 0.5 -1.65257e-10 1.71922e-11 -4.57494e-17
3 1 0.5 0.5 0 1.65285e-10 -1.71927e-11 1.74709e-16
2 1 1 0.5 0.5 1.65251e-10 -1.71923e-11 -2.31802e-16
ITEM: TIMESTEP
2
ITEM: NUMBER OF ATOMS
4
ITEM: BOX BOUNDS xy xz yz pp pp pp
0.0000000000000000e+00 4.0904988758999998e+00 4.0499988899999999e-02
0.0000000000000000e+00 4.0497963820000002e+00 0.0000000000000000e+00
0.0000000000000000e+00 4.0499988870000001e+00 0.0000000000000000e+00
ITEM: ATOMS id type xs ys zs fx fy fz
1 1 1 0 6.95359e-18 -1.53501e-15 1.80997e-15 6.30193e-18
4 1 0.5 0 0.5 7.35349e-15 3.69496e-16 -8.00141e-17
3 1 0.5 0.5 7.62513e-18 1.47833e-14 -1.43635e-15 1.04727e-16
2 1 1 0.5 0.5 -2.06016e-14 -7.42462e-16 -3.1015e-17
