ITEM: TIMESTEP
0
ITEM: NUMBER OF ATOMS
4
ITEM: BOX BOUNDS xy xz yz pp pp pp
0.0000000000000000e+00 4.0369359481000000e+00 0.0000000000000000e+00
0.0000000000000000e+00 3.9963626978000000e+00 0.0000000000000000e+00
0.0000000000000000e+00 4.0369359481000000e+00 0.0000000000000000e+00
ITEM: ATOMS id type xs ys zs fx fy fz
1 1 0 0 0 2.43722e-10 -5.09575e-18 2.43722e-10
2 1 0 0.5 0.5 2.43722e-10 -2.69695e-18 -2.43722e-10
3 1 0.5 0.5 0 -2.43722e-10 5.44812e-18 2.43722e-10
4 1 0.5 0 0.5 -2.43722e-10 1.84314e-18 -2.43722e-10
ITEM: TIMESTEP
1
ITEM: NUMBER OF ATOMS
4
ITEM: BOX BOUNDS xy xz yz pp pp pp
0.0000000000000000e+00 4.0369359481000000e+00 0.0000000000000000e+00
0.0000000000000000e+00 3.9963626978000000e+00 0.0000000000000000e+00
0.0000000000000000e+00 4.0369359481000000e+00 0.0000000000000000e+00
ITEM: ATOMS id type xs ys zs fx fy fz
1 1 6.19282e-12 0 6.19282e-12 -4.44089e-16 9.21572e-18 -2.65782e-16
2 1 6.19282e-12 0.5 0.5 -1.80411e-16 -2.17383e-17 2.77564e-16
3 1 0.5 0.5 6.19282e-12 2.77556e-16 -5.14996e-18 -2.94838e-16
4 1 0.5 4.73085e-20 0.5 2.91434e-16 -2.47198e-17 2.9656e-16
