ITEM: TIMESTEP
0
ITEM: NUMBER OF ATOMS
4
ITEM: BOX BOUNDS xy xz yz pp pp pp
0.0000000000000000e+00 3.8364353062999998e+00 0.0000000000000000e+00
0.0000000000000000e+00 3.8364353062999998e+00 0.0000000000000000e+00
0.0000000000000000e+00 3.8364353062999998e+00 0.0000000000000000e+00
ITEM: ATOMS id type xs ys zs fx fy fz
1 1 0 0 0 -1.29147e-09 -1.29147e-09 -1.29147e-09
3 1 0.5 0.5 0 1.29147e-09 1.29147e-09 -1.29147e-09
2 1 0 0.5 0.5 -1.29147e-09 1.29147e-09 1.29147e-09
4 1 0.5 0 0.5 1.29147e-09 -1.29147e-09 1.29147e-09
ITEM: TIMESTEP
1
ITEM: NUMBER OF ATOMS
4
ITEM: BOX BOUNDS xy xz yz pp pp pp
0.0000000000000000e+00 3.8364353062999998e+00 0.0000000000000000e+00
0.0000000000000000e+00 3.8364353062999998e+00 0.0000000000000000e+00
0.0000000000000000e+00 3.8364353062999998e+00 0.0000000000000000e+00
ITEM: ATOMS id type xs ys zs fx fy fz
2 1 1 0.5 0.5 -3.9968e-15 5.46785e-15 8.74301e-15
3 1 0.5 0.5 1 3.66374e-15 7.99361e-15 -5.9952e-15
4 1 0.5 1 0.5 3.88578e-15 -5.44009e-15 8.82627e-15
1 1 1 1 1 -3.55271e-15 -7.96585e-15 -1.15463e-14
