ITEM: TIMESTEP
0
ITEM: NUMBER OF ATOMS
4
ITEM: BOX BOUNDS xy xz yz pp pp pp
0.0000000000000000e+00 3.8976188042000000e+00 -0.0000000000000000e+00
0.0000000000000000e+00 3.8976188042000000e+00 -0.0000000000000000e+00
0.0000000000000000e+00 3.8976188042000000e+00 -0.0000000000000000e+00
ITEM: ATOMS id type xs ys zs fx fy fz
1 1 0 0 0 7.07486e-10 7.07485e-10 7.07486e-10
4 1 0.5 0 0.5 -7.07486e-10 7.07485e-10 -7.07486e-10
3 1 0.5 0.5 0 -7.07486e-10 -7.07485e-10 7.07486e-10
2 1 0 0.5 0.5 7.07486e-10 -7.07485e-10 -7.07486e-10
ITEM: TIMESTEP
1
ITEM: NUMBER OF ATOMS
4
ITEM: BOX BOUNDS xy xz yz pp pp pp
0.0000000000000000e+00 3.8976188042000000e+00 -0.0000000000000000e+00
0.0000000000000000e+00 3.8976188042000000e+00 -0.0000000000000000e+00
0.0000000000000000e+00 3.8976188042000000e+00 -0.0000000000000000e+00
ITEM: ATOMS id type xs ys zs fx fy fz
1 1 1.28284e-11 1.28284e-11 1.28284e-11 1.05471e-15 1.11543e-15 8.78576e-16
4 1 0.5 1.28284e-11 0.5 -1.4086e-15 1.57735e-15 -1.11294e-15
3 1 0.5 0.5 1.28284e-11 -1.36696e-15 -1.4466e-15 1.55149e-15
2 1 1.28284e-11 0.5 0.5 1.72085e-15 -1.33818e-15 -1.44067e-15
