
4 atoms
1 atom types
   0.0000000000    4.1807333186 xlo xhi
   0.0000000000    4.1807333186 ylo yhi
   0.0000000000    4.1807333186 zlo zhi
   0.0000000000    0.0000000000    0.0000000000 xy xz yz

Atoms # atomic

     1      1    0.0000000000    0.0000000000    0.0000000000
     2      1    0.0000000000    2.0903666593    2.0903666593
     3      1    2.0903666593    2.0903666593    0.0000000000
     4      1    2.0903666593    0.0000000000    2.0903666593
