:: initializing oneAPI environment ...
   BASH version = 5.0.17(1)-release
:: tbb -- latest
:: dev-utilities -- latest
:: mkl -- latest
:: compiler -- latest
:: mpi -- latest
:: oneAPI environment initialized ::
 running on   32 total cores
 distrk:  each k-point on   32 cores,    1 groups
 distr:  one band on    1 cores,   32 groups
 using from now: INCAR     
 vasp.5.4.4.18Apr17-6-g9f103f2a35 (build Nov 07 2022 11:18:25) complex          
  
 POSCAR found type information on POSCAR  Al
 POSCAR found :  1 types and      16 ions
 scaLAPACK will be used

 ----------------------------------------------------------------------------- 
|                                                                             |
|           W    W    AA    RRRRR   N    N  II  N    N   GGGG   !!!           |
|           W    W   A  A   R    R  NN   N  II  NN   N  G    G  !!!           |
|           W    W  A    A  R    R  N N  N  II  N N  N  G       !!!           |
|           W WW W  AAAAAA  RRRRR   N  N N  II  N  N N  G  GGG   !            |
|           WW  WW  A    A  R   R   N   NN  II  N   NN  G    G                |
|           W    W  A    A  R    R  N    N  II  N    N   GGGG   !!!           |
|                                                                             |
|      For optimal performance we recommend to set                            |
|        NCORE= 4 - approx SQRT( number of cores)                             |
|      NCORE specifies how many cores store one orbital (NPAR=cpu/NCORE).     |
|      This setting can  greatly improve the performance of VASP for DFT.     |
|      The default,   NCORE=1            might be grossly inefficient         |
|      on modern multi-core architectures or massively parallel machines.     |
|      Do your own testing !!!!                                               |
|      Unfortunately you need to use the default for GW and RPA calculations. |
|      (for HF NCORE is supported but not extensively tested yet)             |
|                                                                             |
 ----------------------------------------------------------------------------- 

 LDA part: xc-table for Pade appr. of Perdew
 POSCAR, INCAR and KPOINTS ok, starting setup
 FFT: planning ...
 WAVECAR not read
 entering main loop
       N       E                     dE             d eps       ncg     rms          rms(c)
DAV:   1     0.548823044102E+02    0.54882E+02   -0.13109E+04 71680   0.445E+02
DAV:   2    -0.551416109915E+02   -0.11002E+03   -0.10372E+03 97344   0.801E+01
DAV:   3    -0.592622613241E+02   -0.41207E+01   -0.40958E+01102560   0.153E+01
DAV:   4    -0.594739434719E+02   -0.21168E+00   -0.21167E+00123232   0.384E+00
DAV:   5    -0.594764229765E+02   -0.24795E-02   -0.24795E-02116320   0.351E-01    0.584E+00
RMM:   6    -0.578168026320E+02    0.16596E+01   -0.46944E-01 81212   0.907E-01    0.355E+00
RMM:   7    -0.572039910882E+02    0.61281E+00   -0.16418E-01 79336   0.515E-01    0.213E+00
RMM:   8    -0.570100814996E+02    0.19391E+00   -0.95271E-02 88351   0.506E-01    0.570E-01
RMM:   9    -0.569980554033E+02    0.12026E-01   -0.10330E-02 91088   0.190E-01    0.257E-01
RMM:  10    -0.569957947242E+02    0.22607E-02   -0.18769E-03 91718   0.858E-02    0.164E-01
RMM:  11    -0.569950926455E+02    0.70208E-03   -0.14049E-03 86773   0.658E-02    0.514E-02
RMM:  12    -0.569953553708E+02   -0.26273E-03   -0.52712E-04 88265   0.362E-02    0.327E-02
RMM:  13    -0.569958609148E+02   -0.50554E-03   -0.52192E-04 84116   0.350E-02    0.268E-02
RMM:  14    -0.569962544431E+02   -0.39353E-03   -0.10865E-04 82901   0.194E-02    0.895E-03
RMM:  15    -0.569964844267E+02   -0.22998E-03   -0.34254E-05 80718   0.104E-02    0.866E-03
RMM:  16    -0.569966637919E+02   -0.17937E-03   -0.30493E-05 79706   0.725E-03    0.393E-03
RMM:  17    -0.569968452873E+02   -0.18150E-03   -0.64093E-06 74566   0.380E-03    0.203E-03
RMM:  18    -0.569969376008E+02   -0.92314E-04   -0.40215E-06 72142   0.282E-03    0.128E-03
RMM:  19    -0.569969914928E+02   -0.53892E-04   -0.43589E-06 69903   0.246E-03    0.389E-04
RMM:  20    -0.569969988949E+02   -0.74021E-05   -0.43702E-07 68153   0.116E-03    0.559E-04
RMM:  21    -0.569970007297E+02   -0.18348E-05   -0.80991E-08 63464   0.777E-04    0.394E-04
RMM:  22    -0.569970039390E+02   -0.32093E-05   -0.24457E-07 59395   0.808E-04    0.221E-04
RMM:  23    -0.569970042197E+02   -0.28070E-06   -0.26881E-08 57329   0.535E-04
   1 F= -.56997004E+02 E0= -.56995243E+02  d E =-.528299E-02
