 vasp.5.4.4.18Apr17-6-g9f103f2a35 (build Nov 07 2022 11:18:25) complex          
  
 executed on             LinuxIFC date 2024.05.28  09:46:38
 running on   32 total cores
 distrk:  each k-point on   32 cores,    1 groups
 distr:  one band on NCORES_PER_BAND=   1 cores,   32 groups


--------------------------------------------------------------------------------------------------------


 INCAR:
 POTCAR:    PAW_PBE Al 04Jan2001                  

 ----------------------------------------------------------------------------- 
|                                                                             |
|           W    W    AA    RRRRR   N    N  II  N    N   GGGG   !!!           |
|           W    W   A  A   R    R  NN   N  II  NN   N  G    G  !!!           |
|           W    W  A    A  R    R  N N  N  II  N N  N  G       !!!           |
|           W WW W  AAAAAA  RRRRR   N  N N  II  N  N N  G  GGG   !            |
|           WW  WW  A    A  R   R   N   NN  II  N   NN  G    G                |
|           W    W  A    A  R    R  N    N  II  N    N   GGGG   !!!           |
|                                                                             |
|      For optimal performance we recommend to set                            |
|        NCORE= 4 - approx SQRT( number of cores)                             |
|      NCORE specifies how many cores store one orbital (NPAR=cpu/NCORE).     |
|      This setting can  greatly improve the performance of VASP for DFT.     |
|      The default,   NCORE=1            might be grossly inefficient         |
|      on modern multi-core architectures or massively parallel machines.     |
|      Do your own testing !!!!                                               |
|      Unfortunately you need to use the default for GW and RPA calculations. |
|      (for HF NCORE is supported but not extensively tested yet)             |
|                                                                             |
 ----------------------------------------------------------------------------- 

 POTCAR:    PAW_PBE Al 04Jan2001                  
   SHA256 =  17880443556af62b473fe41b62a467bd001ad55d2cabe504a3f22e34d4e9db96 Al
   COPYR  = (c) Copyright 04Jan2001 Georg Kresse                                
   COPYR  = This file is part of the software VASP. Any use, copying, and all ot
   COPYR  = If you do not have a valid VASP license, you may not use, copy or di
   VRHFIN =Al: s2p1                                                             
   LEXCH  = PE                                                                  
   EATOM  =    53.5387 eV,    3.9350 Ry                                         
                                                                                
   TITEL  = PAW_PBE Al 04Jan2001                                                
   LULTRA =        F    use ultrasoft PP ?                                      
   IUNSCR =        1    unscreen: 0-lin 1-nonlin 2-no                           
   RPACOR =    1.500    partial core radius                                     
   POMASS =   26.981; ZVAL   =    3.000    mass and valenz                      
   RCORE  =    1.900    outmost cutoff radius                                   
   RWIGS  =    2.650; RWIGS  =    1.402    wigner-seitz radius (au A)           
   ENMAX  =  240.300; ENMIN  =  180.225 eV                                      
   ICORE  =        2    local potential                                         
   LCOR   =        T    correct aug charges                                     
   LPAW   =        T    paw PP                                                  
   EAUG   =  291.052                                                            
   DEXC   =    0.000                                                            
   RMAX   =    1.939    core radius for proj-oper                               
   RAUG   =    1.300    factor for augmentation sphere                          
   RDEP   =    1.966    radius for radial grids                                 
   RDEPT  =    1.856    core radius for aug-charge                              
                                                                                
   Atomic configuration                                                         
    6 entries                                                                   
     n  l   j            E        occ.                                          
     1  0  0.50     -1511.1048   2.0000                                         
     2  0  0.50      -108.1629   2.0000                                         
     2  1  1.50       -69.6402   6.0000                                         
     3  0  0.50        -7.7528   2.0000                                         
     3  1  1.50        -2.7121   1.0000                                         
     3  2  2.50        -2.7212   0.0000                                         
   Description                                                                  
     l       E           TYP  RCUT    TYP  RCUT                                 
     0     -7.7528455     23  1.900                                             
     0     -3.3096929     23  1.900                                             
     1     -2.7120682     23  1.900                                             
     1     13.6058260     23  1.900                                             
     2     -2.7211652      7  1.900                                             
  local pseudopotential read in
  partial core-charges read in
  partial kinetic energy density read in
  atomic valenz-charges read in
  non local Contribution for L=           0  read in
    real space projection operators read in
  non local Contribution for L=           0  read in
    real space projection operators read in
  non local Contribution for L=           1  read in
    real space projection operators read in
  non local Contribution for L=           1  read in
    real space projection operators read in
    PAW grid and wavefunctions read in
 
   number of l-projection  operators is LMAX  =           4
   number of lm-projection operators is LMMAX =           8
 
 Optimization of the real space projectors (new method)

 maximal supplied QI-value         = 19.84
 optimisation between [QCUT,QGAM] = [ 10.12, 20.44] = [ 28.68,116.96] Ry 
 Optimized for a Real-space Cutoff    1.38 Angstroem

   l    n(q)    QCUT    max X(q) W(low)/X(q) W(high)/X(q)  e(spline) 
   0      8    10.119   176.870    0.39E-04    0.93E-04    0.54E-07
   0      8    10.119   105.762    0.37E-04    0.91E-04    0.53E-07
   1      8    10.119    55.370    0.18E-03    0.13E-03    0.19E-06
   1      8    10.119    20.208    0.17E-03    0.12E-03    0.18E-06
  PAW_PBE Al 04Jan2001                  :
 energy of atom  1       EATOM=  -53.5387
 kinetic energy error for atom=    0.0005 (will be added to EATOM!!)
 
 
 POSCAR: Al16                                    
  positions in direct lattice
  No initial velocities read in
 exchange correlation table for  LEXCH =        8
   RHO(1)=    0.500       N(1)  =     2000
   RHO(2)=  100.500       N(2)  =     4000
 


--------------------------------------------------------------------------------------------------------


 ion  position               nearest neighbor table
   1  0.875  0.097  0.097-   4 2.86   7 2.86   3 2.86   8 2.86   5 2.86   8 2.86   3 2.86   7 2.86
                             4 2.86
   2  0.875  0.542  0.042-   8 2.86   3 2.86   4 2.86   6 2.86   4 2.86   3 2.86   8 2.86
   3  0.375  0.819  0.069-   6 2.86   1 2.86   2 2.86   7 2.86   2 2.86   1 2.86   6 2.86
   4  0.375  0.264  0.014-   1 2.86   2 2.86   8 2.86   2 2.86   1 2.86
   5  0.875  0.208  0.208-  11 2.86   8 2.86   7 2.86  12 2.86   9 2.86   1 2.86  12 2.86   7 2.86
                            11 2.86   8 2.86
   6  0.875  0.653  0.153-   3 2.86  12 2.86   7 2.86   8 2.86  10 2.86   2 2.86   8 2.86   7 2.86
                             3 2.86  12 2.86
   7  0.375  0.931  0.181-  10 2.86   1 2.86   5 2.86   6 2.86  11 2.86   3 2.86   6 2.86   5 2.86
                            10 2.86   1 2.86
   8  0.375  0.375  0.125-   2 2.86   5 2.86   1 2.86   6 2.86   4 2.86  12 2.86   6 2.86   1 2.86
                             5 2.86   2 2.86
   9  0.875  0.319  0.319-  12 2.86  15 2.86  11 2.86  16 2.86   5 2.86  13 2.86  16 2.86  11 2.86
                            12 2.86  15 2.86
  10  0.875  0.764  0.264-   7 2.86  16 2.86  12 2.86  11 2.86   6 2.86  14 2.86  12 2.86  11 2.86
                             7 2.86  16 2.86
  11  0.375  0.042  0.292-   5 2.86  14 2.86   9 2.86  10 2.86   7 2.86  15 2.86  10 2.86   9 2.86
                             5 2.86  14 2.86
  12  0.375  0.486  0.236-   9 2.86   6 2.86  10 2.86   5 2.86  16 2.86   8 2.86  10 2.86   5 2.86
                             9 2.86   6 2.86
  13  0.875  0.431  0.431-  16 2.86  15 2.86   9 2.86  15 2.86  16 2.86
  14  0.875  0.875  0.375-  11 2.86  16 2.86  15 2.86  10 2.86  15 2.86  16 2.86  11 2.86
  15  0.375  0.153  0.403-   9 2.86  14 2.86  13 2.86  11 2.86  13 2.86  14 2.86   9 2.86
  16  0.375  0.597  0.347-  10 2.86  13 2.86   9 2.86  14 2.86  12 2.86  14 2.86   9 2.86  13 2.86
                            10 2.86
 
  LATTYP: Found a simple monoclinic cell.
 ALAT       =    24.4024590158
 B/A-ratio  =     0.3511065716
 C/A-ratio  =     1.9896522853
 COS(beta)  =    -0.9982923852
  
  Lattice vectors:
  
 A1 = (  -2.8659545748,   0.0000000000, -24.2335781591)
 A2 = (   0.0000000000,  -8.5678637244,   0.0000000000)
 A3 = (   2.8759545748,   0.0000000000,  48.4671563182)


Analysis of symmetry for initial positions (statically):
=====================================================================
 Subroutine PRICEL returns:
 Original cell was already a primitive cell.
 

 Routine SETGRP: Setting up the symmetry group for a 
 simple monoclinic supercell.


 Subroutine GETGRP returns: Found  2 space group operations
 (whereof  1 operations were pure point group operations)
 out of a pool of  4 trial point group operations.


The static configuration has the point symmetry C_1 .
 The point group associated with its full space group is S_2 .


Analysis of symmetry for dynamics (positions and initial velocities):
=====================================================================
 Subroutine PRICEL returns:
 Original cell was already a primitive cell.
 

 Routine SETGRP: Setting up the symmetry group for a 
 simple monoclinic supercell.


 Subroutine GETGRP returns: Found  2 space group operations
 (whereof  1 operations were pure point group operations)
 out of a pool of  4 trial point group operations.


The dynamic configuration has the point symmetry C_1 .
 The point group associated with its full space group is S_2 .


 Subroutine INISYM returns: Found  2 space group operations
 (whereof  1 operations are pure point group operations),
 and found     1 'primitive' translations

 
 
 KPOINTS: Automatic kpoint scheme                 

Automatic generation of k-mesh.
Space group operators:
 irot       det(A)        alpha          n_x          n_y          n_z        tau_x        tau_y        tau_z
    1     1.000000     0.000000     1.000000     0.000000     0.000000     0.000000     0.000000     0.000000
    2    -1.000000     0.000000     1.000000     0.000000     0.000000    -0.750000    -0.305556    -0.555556
 
 Subroutine IBZKPT returns following result:
 ===========================================
 
 Found    560 irreducible k-points:
 
 Following reciprocal coordinates:
            Coordinates               Weight
  0.017857  0.050000  0.125000      2.000000
  0.053571  0.050000  0.125000      2.000000
  0.089286  0.050000  0.125000      2.000000
  0.125000  0.050000  0.125000      2.000000
  0.160714  0.050000  0.125000      2.000000
  0.196429  0.050000  0.125000      2.000000
  0.232143  0.050000  0.125000      2.000000
  0.267857  0.050000  0.125000      2.000000
  0.303571  0.050000  0.125000      2.000000
  0.339286  0.050000  0.125000      2.000000
  0.375000  0.050000  0.125000      2.000000
  0.410714  0.050000  0.125000      2.000000
  0.446429  0.050000  0.125000      2.000000
  0.482143  0.050000  0.125000      2.000000
 -0.482143  0.050000  0.125000      2.000000
 -0.446429  0.050000  0.125000      2.000000
 -0.410714  0.050000  0.125000      2.000000
 -0.375000  0.050000  0.125000      2.000000
 -0.339286  0.050000  0.125000      2.000000
 -0.303571  0.050000  0.125000      2.000000
 -0.267857  0.050000  0.125000      2.000000
 -0.232143  0.050000  0.125000      2.000000
 -0.196429  0.050000  0.125000      2.000000
 -0.160714  0.050000  0.125000      2.000000
 -0.125000  0.050000  0.125000      2.000000
 -0.089286  0.050000  0.125000      2.000000
 -0.053571  0.050000  0.125000      2.000000
 -0.017857  0.050000  0.125000      2.000000
  0.017857  0.150000  0.125000      2.000000
  0.053571  0.150000  0.125000      2.000000
  0.089286  0.150000  0.125000      2.000000
  0.125000  0.150000  0.125000      2.000000
  0.160714  0.150000  0.125000      2.000000
  0.196429  0.150000  0.125000      2.000000
  0.232143  0.150000  0.125000      2.000000
  0.267857  0.150000  0.125000      2.000000
  0.303571  0.150000  0.125000      2.000000
  0.339286  0.150000  0.125000      2.000000
  0.375000  0.150000  0.125000      2.000000
  0.410714  0.150000  0.125000      2.000000
  0.446429  0.150000  0.125000      2.000000
  0.482143  0.150000  0.125000      2.000000
 -0.482143  0.150000  0.125000      2.000000
 -0.446429  0.150000  0.125000      2.000000
 -0.410714  0.150000  0.125000      2.000000
 -0.375000  0.150000  0.125000      2.000000
 -0.339286  0.150000  0.125000      2.000000
 -0.303571  0.150000  0.125000      2.000000
 -0.267857  0.150000  0.125000      2.000000
 -0.232143  0.150000  0.125000      2.000000
 -0.196429  0.150000  0.125000      2.000000
 -0.160714  0.150000  0.125000      2.000000
 -0.125000  0.150000  0.125000      2.000000
 -0.089286  0.150000  0.125000      2.000000
 -0.053571  0.150000  0.125000      2.000000
 -0.017857  0.150000  0.125000      2.000000
  0.017857  0.250000  0.125000      2.000000
  0.053571  0.250000  0.125000      2.000000
  0.089286  0.250000  0.125000      2.000000
  0.125000  0.250000  0.125000      2.000000
  0.160714  0.250000  0.125000      2.000000
  0.196429  0.250000  0.125000      2.000000
  0.232143  0.250000  0.125000      2.000000
  0.267857  0.250000  0.125000      2.000000
  0.303571  0.250000  0.125000      2.000000
  0.339286  0.250000  0.125000      2.000000
  0.375000  0.250000  0.125000      2.000000
  0.410714  0.250000  0.125000      2.000000
  0.446429  0.250000  0.125000      2.000000
  0.482143  0.250000  0.125000      2.000000
 -0.482143  0.250000  0.125000      2.000000
 -0.446429  0.250000  0.125000      2.000000
 -0.410714  0.250000  0.125000      2.000000
 -0.375000  0.250000  0.125000      2.000000
 -0.339286  0.250000  0.125000      2.000000
 -0.303571  0.250000  0.125000      2.000000
 -0.267857  0.250000  0.125000      2.000000
 -0.232143  0.250000  0.125000      2.000000
 -0.196429  0.250000  0.125000      2.000000
 -0.160714  0.250000  0.125000      2.000000
 -0.125000  0.250000  0.125000      2.000000
 -0.089286  0.250000  0.125000      2.000000
 -0.053571  0.250000  0.125000      2.000000
 -0.017857  0.250000  0.125000      2.000000
  0.017857  0.350000  0.125000      2.000000
  0.053571  0.350000  0.125000      2.000000
  0.089286  0.350000  0.125000      2.000000
  0.125000  0.350000  0.125000      2.000000
  0.160714  0.350000  0.125000      2.000000
  0.196429  0.350000  0.125000      2.000000
  0.232143  0.350000  0.125000      2.000000
  0.267857  0.350000  0.125000      2.000000
  0.303571  0.350000  0.125000      2.000000
  0.339286  0.350000  0.125000      2.000000
  0.375000  0.350000  0.125000      2.000000
  0.410714  0.350000  0.125000      2.000000
  0.446429  0.350000  0.125000      2.000000
  0.482143  0.350000  0.125000      2.000000
 -0.482143  0.350000  0.125000      2.000000
 -0.446429  0.350000  0.125000      2.000000
 -0.410714  0.350000  0.125000      2.000000
 -0.375000  0.350000  0.125000      2.000000
 -0.339286  0.350000  0.125000      2.000000
 -0.303571  0.350000  0.125000      2.000000
 -0.267857  0.350000  0.125000      2.000000
 -0.232143  0.350000  0.125000      2.000000
 -0.196429  0.350000  0.125000      2.000000
 -0.160714  0.350000  0.125000      2.000000
 -0.125000  0.350000  0.125000      2.000000
 -0.089286  0.350000  0.125000      2.000000
 -0.053571  0.350000  0.125000      2.000000
 -0.017857  0.350000  0.125000      2.000000
  0.017857  0.450000  0.125000      2.000000
  0.053571  0.450000  0.125000      2.000000
  0.089286  0.450000  0.125000      2.000000
  0.125000  0.450000  0.125000      2.000000
  0.160714  0.450000  0.125000      2.000000
  0.196429  0.450000  0.125000      2.000000
  0.232143  0.450000  0.125000      2.000000
  0.267857  0.450000  0.125000      2.000000
  0.303571  0.450000  0.125000      2.000000
  0.339286  0.450000  0.125000      2.000000
  0.375000  0.450000  0.125000      2.000000
  0.410714  0.450000  0.125000      2.000000
  0.446429  0.450000  0.125000      2.000000
  0.482143  0.450000  0.125000      2.000000
 -0.482143  0.450000  0.125000      2.000000
 -0.446429  0.450000  0.125000      2.000000
 -0.410714  0.450000  0.125000      2.000000
 -0.375000  0.450000  0.125000      2.000000
 -0.339286  0.450000  0.125000      2.000000
 -0.303571  0.450000  0.125000      2.000000
 -0.267857  0.450000  0.125000      2.000000
 -0.232143  0.450000  0.125000      2.000000
 -0.196429  0.450000  0.125000      2.000000
 -0.160714  0.450000  0.125000      2.000000
 -0.125000  0.450000  0.125000      2.000000
 -0.089286  0.450000  0.125000      2.000000
 -0.053571  0.450000  0.125000      2.000000
 -0.017857  0.450000  0.125000      2.000000
  0.017857 -0.450000  0.125000      2.000000
  0.053571 -0.450000  0.125000      2.000000
  0.089286 -0.450000  0.125000      2.000000
  0.125000 -0.450000  0.125000      2.000000
  0.160714 -0.450000  0.125000      2.000000
  0.196429 -0.450000  0.125000      2.000000
  0.232143 -0.450000  0.125000      2.000000
  0.267857 -0.450000  0.125000      2.000000
  0.303571 -0.450000  0.125000      2.000000
  0.339286 -0.450000  0.125000      2.000000
  0.375000 -0.450000  0.125000      2.000000
  0.410714 -0.450000  0.125000      2.000000
  0.446429 -0.450000  0.125000      2.000000
  0.482143 -0.450000  0.125000      2.000000
 -0.482143 -0.450000  0.125000      2.000000
 -0.446429 -0.450000  0.125000      2.000000
 -0.410714 -0.450000  0.125000      2.000000
 -0.375000 -0.450000  0.125000      2.000000
 -0.339286 -0.450000  0.125000      2.000000
 -0.303571 -0.450000  0.125000      2.000000
 -0.267857 -0.450000  0.125000      2.000000
 -0.232143 -0.450000  0.125000      2.000000
 -0.196429 -0.450000  0.125000      2.000000
 -0.160714 -0.450000  0.125000      2.000000
 -0.125000 -0.450000  0.125000      2.000000
 -0.089286 -0.450000  0.125000      2.000000
 -0.053571 -0.450000  0.125000      2.000000
 -0.017857 -0.450000  0.125000      2.000000
  0.017857 -0.350000  0.125000      2.000000
  0.053571 -0.350000  0.125000      2.000000
  0.089286 -0.350000  0.125000      2.000000
  0.125000 -0.350000  0.125000      2.000000
  0.160714 -0.350000  0.125000      2.000000
  0.196429 -0.350000  0.125000      2.000000
  0.232143 -0.350000  0.125000      2.000000
  0.267857 -0.350000  0.125000      2.000000
  0.303571 -0.350000  0.125000      2.000000
  0.339286 -0.350000  0.125000      2.000000
  0.375000 -0.350000  0.125000      2.000000
  0.410714 -0.350000  0.125000      2.000000
  0.446429 -0.350000  0.125000      2.000000
  0.482143 -0.350000  0.125000      2.000000
 -0.482143 -0.350000  0.125000      2.000000
 -0.446429 -0.350000  0.125000      2.000000
 -0.410714 -0.350000  0.125000      2.000000
 -0.375000 -0.350000  0.125000      2.000000
 -0.339286 -0.350000  0.125000      2.000000
 -0.303571 -0.350000  0.125000      2.000000
 -0.267857 -0.350000  0.125000      2.000000
 -0.232143 -0.350000  0.125000      2.000000
 -0.196429 -0.350000  0.125000      2.000000
 -0.160714 -0.350000  0.125000      2.000000
 -0.125000 -0.350000  0.125000      2.000000
 -0.089286 -0.350000  0.125000      2.000000
 -0.053571 -0.350000  0.125000      2.000000
 -0.017857 -0.350000  0.125000      2.000000
  0.017857 -0.250000  0.125000      2.000000
  0.053571 -0.250000  0.125000      2.000000
  0.089286 -0.250000  0.125000      2.000000
  0.125000 -0.250000  0.125000      2.000000
  0.160714 -0.250000  0.125000      2.000000
  0.196429 -0.250000  0.125000      2.000000
  0.232143 -0.250000  0.125000      2.000000
  0.267857 -0.250000  0.125000      2.000000
  0.303571 -0.250000  0.125000      2.000000
  0.339286 -0.250000  0.125000      2.000000
  0.375000 -0.250000  0.125000      2.000000
  0.410714 -0.250000  0.125000      2.000000
  0.446429 -0.250000  0.125000      2.000000
  0.482143 -0.250000  0.125000      2.000000
 -0.482143 -0.250000  0.125000      2.000000
 -0.446429 -0.250000  0.125000      2.000000
 -0.410714 -0.250000  0.125000      2.000000
 -0.375000 -0.250000  0.125000      2.000000
 -0.339286 -0.250000  0.125000      2.000000
 -0.303571 -0.250000  0.125000      2.000000
 -0.267857 -0.250000  0.125000      2.000000
 -0.232143 -0.250000  0.125000      2.000000
 -0.196429 -0.250000  0.125000      2.000000
 -0.160714 -0.250000  0.125000      2.000000
 -0.125000 -0.250000  0.125000      2.000000
 -0.089286 -0.250000  0.125000      2.000000
 -0.053571 -0.250000  0.125000      2.000000
 -0.017857 -0.250000  0.125000      2.000000
  0.017857 -0.150000  0.125000      2.000000
  0.053571 -0.150000  0.125000      2.000000
  0.089286 -0.150000  0.125000      2.000000
  0.125000 -0.150000  0.125000      2.000000
  0.160714 -0.150000  0.125000      2.000000
  0.196429 -0.150000  0.125000      2.000000
  0.232143 -0.150000  0.125000      2.000000
  0.267857 -0.150000  0.125000      2.000000
  0.303571 -0.150000  0.125000      2.000000
  0.339286 -0.150000  0.125000      2.000000
  0.375000 -0.150000  0.125000      2.000000
  0.410714 -0.150000  0.125000      2.000000
  0.446429 -0.150000  0.125000      2.000000
  0.482143 -0.150000  0.125000      2.000000
 -0.482143 -0.150000  0.125000      2.000000
 -0.446429 -0.150000  0.125000      2.000000
 -0.410714 -0.150000  0.125000      2.000000
 -0.375000 -0.150000  0.125000      2.000000
 -0.339286 -0.150000  0.125000      2.000000
 -0.303571 -0.150000  0.125000      2.000000
 -0.267857 -0.150000  0.125000      2.000000
 -0.232143 -0.150000  0.125000      2.000000
 -0.196429 -0.150000  0.125000      2.000000
 -0.160714 -0.150000  0.125000      2.000000
 -0.125000 -0.150000  0.125000      2.000000
 -0.089286 -0.150000  0.125000      2.000000
 -0.053571 -0.150000  0.125000      2.000000
 -0.017857 -0.150000  0.125000      2.000000
  0.017857 -0.050000  0.125000      2.000000
  0.053571 -0.050000  0.125000      2.000000
  0.089286 -0.050000  0.125000      2.000000
  0.125000 -0.050000  0.125000      2.000000
  0.160714 -0.050000  0.125000      2.000000
  0.196429 -0.050000  0.125000      2.000000
  0.232143 -0.050000  0.125000      2.000000
  0.267857 -0.050000  0.125000      2.000000
  0.303571 -0.050000  0.125000      2.000000
  0.339286 -0.050000  0.125000      2.000000
  0.375000 -0.050000  0.125000      2.000000
  0.410714 -0.050000  0.125000      2.000000
  0.446429 -0.050000  0.125000      2.000000
  0.482143 -0.050000  0.125000      2.000000
 -0.482143 -0.050000  0.125000      2.000000
 -0.446429 -0.050000  0.125000      2.000000
 -0.410714 -0.050000  0.125000      2.000000
 -0.375000 -0.050000  0.125000      2.000000
 -0.339286 -0.050000  0.125000      2.000000
 -0.303571 -0.050000  0.125000      2.000000
 -0.267857 -0.050000  0.125000      2.000000
 -0.232143 -0.050000  0.125000      2.000000
 -0.196429 -0.050000  0.125000      2.000000
 -0.160714 -0.050000  0.125000      2.000000
 -0.125000 -0.050000  0.125000      2.000000
 -0.089286 -0.050000  0.125000      2.000000
 -0.053571 -0.050000  0.125000      2.000000
 -0.017857 -0.050000  0.125000      2.000000
  0.017857  0.050000  0.375000      2.000000
  0.053571  0.050000  0.375000      2.000000
  0.089286  0.050000  0.375000      2.000000
  0.125000  0.050000  0.375000      2.000000
  0.160714  0.050000  0.375000      2.000000
  0.196429  0.050000  0.375000      2.000000
  0.232143  0.050000  0.375000      2.000000
  0.267857  0.050000  0.375000      2.000000
  0.303571  0.050000  0.375000      2.000000
  0.339286  0.050000  0.375000      2.000000
  0.375000  0.050000  0.375000      2.000000
  0.410714  0.050000  0.375000      2.000000
  0.446429  0.050000  0.375000      2.000000
  0.482143  0.050000  0.375000      2.000000
 -0.482143  0.050000  0.375000      2.000000
 -0.446429  0.050000  0.375000      2.000000
 -0.410714  0.050000  0.375000      2.000000
 -0.375000  0.050000  0.375000      2.000000
 -0.339286  0.050000  0.375000      2.000000
 -0.303571  0.050000  0.375000      2.000000
 -0.267857  0.050000  0.375000      2.000000
 -0.232143  0.050000  0.375000      2.000000
 -0.196429  0.050000  0.375000      2.000000
 -0.160714  0.050000  0.375000      2.000000
 -0.125000  0.050000  0.375000      2.000000
 -0.089286  0.050000  0.375000      2.000000
 -0.053571  0.050000  0.375000      2.000000
 -0.017857  0.050000  0.375000      2.000000
  0.017857  0.150000  0.375000      2.000000
  0.053571  0.150000  0.375000      2.000000
  0.089286  0.150000  0.375000      2.000000
  0.125000  0.150000  0.375000      2.000000
  0.160714  0.150000  0.375000      2.000000
  0.196429  0.150000  0.375000      2.000000
  0.232143  0.150000  0.375000      2.000000
  0.267857  0.150000  0.375000      2.000000
  0.303571  0.150000  0.375000      2.000000
  0.339286  0.150000  0.375000      2.000000
  0.375000  0.150000  0.375000      2.000000
  0.410714  0.150000  0.375000      2.000000
  0.446429  0.150000  0.375000      2.000000
  0.482143  0.150000  0.375000      2.000000
 -0.482143  0.150000  0.375000      2.000000
 -0.446429  0.150000  0.375000      2.000000
 -0.410714  0.150000  0.375000      2.000000
 -0.375000  0.150000  0.375000      2.000000
 -0.339286  0.150000  0.375000      2.000000
 -0.303571  0.150000  0.375000      2.000000
 -0.267857  0.150000  0.375000      2.000000
 -0.232143  0.150000  0.375000      2.000000
 -0.196429  0.150000  0.375000      2.000000
 -0.160714  0.150000  0.375000      2.000000
 -0.125000  0.150000  0.375000      2.000000
 -0.089286  0.150000  0.375000      2.000000
 -0.053571  0.150000  0.375000      2.000000
 -0.017857  0.150000  0.375000      2.000000
  0.017857  0.250000  0.375000      2.000000
  0.053571  0.250000  0.375000      2.000000
  0.089286  0.250000  0.375000      2.000000
  0.125000  0.250000  0.375000      2.000000
  0.160714  0.250000  0.375000      2.000000
  0.196429  0.250000  0.375000      2.000000
  0.232143  0.250000  0.375000      2.000000
  0.267857  0.250000  0.375000      2.000000
  0.303571  0.250000  0.375000      2.000000
  0.339286  0.250000  0.375000      2.000000
  0.375000  0.250000  0.375000      2.000000
  0.410714  0.250000  0.375000      2.000000
  0.446429  0.250000  0.375000      2.000000
  0.482143  0.250000  0.375000      2.000000
 -0.482143  0.250000  0.375000      2.000000
 -0.446429  0.250000  0.375000      2.000000
 -0.410714  0.250000  0.375000      2.000000
 -0.375000  0.250000  0.375000      2.000000
 -0.339286  0.250000  0.375000      2.000000
 -0.303571  0.250000  0.375000      2.000000
 -0.267857  0.250000  0.375000      2.000000
 -0.232143  0.250000  0.375000      2.000000
 -0.196429  0.250000  0.375000      2.000000
 -0.160714  0.250000  0.375000      2.000000
 -0.125000  0.250000  0.375000      2.000000
 -0.089286  0.250000  0.375000      2.000000
 -0.053571  0.250000  0.375000      2.000000
 -0.017857  0.250000  0.375000      2.000000
  0.017857  0.350000  0.375000      2.000000
  0.053571  0.350000  0.375000      2.000000
  0.089286  0.350000  0.375000      2.000000
  0.125000  0.350000  0.375000      2.000000
  0.160714  0.350000  0.375000      2.000000
  0.196429  0.350000  0.375000      2.000000
  0.232143  0.350000  0.375000      2.000000
  0.267857  0.350000  0.375000      2.000000
  0.303571  0.350000  0.375000      2.000000
  0.339286  0.350000  0.375000      2.000000
  0.375000  0.350000  0.375000      2.000000
  0.410714  0.350000  0.375000      2.000000
  0.446429  0.350000  0.375000      2.000000
  0.482143  0.350000  0.375000      2.000000
 -0.482143  0.350000  0.375000      2.000000
 -0.446429  0.350000  0.375000      2.000000
 -0.410714  0.350000  0.375000      2.000000
 -0.375000  0.350000  0.375000      2.000000
 -0.339286  0.350000  0.375000      2.000000
 -0.303571  0.350000  0.375000      2.000000
 -0.267857  0.350000  0.375000      2.000000
 -0.232143  0.350000  0.375000      2.000000
 -0.196429  0.350000  0.375000      2.000000
 -0.160714  0.350000  0.375000      2.000000
 -0.125000  0.350000  0.375000      2.000000
 -0.089286  0.350000  0.375000      2.000000
 -0.053571  0.350000  0.375000      2.000000
 -0.017857  0.350000  0.375000      2.000000
  0.017857  0.450000  0.375000      2.000000
  0.053571  0.450000  0.375000      2.000000
  0.089286  0.450000  0.375000      2.000000
  0.125000  0.450000  0.375000      2.000000
  0.160714  0.450000  0.375000      2.000000
  0.196429  0.450000  0.375000      2.000000
  0.232143  0.450000  0.375000      2.000000
  0.267857  0.450000  0.375000      2.000000
  0.303571  0.450000  0.375000      2.000000
  0.339286  0.450000  0.375000      2.000000
  0.375000  0.450000  0.375000      2.000000
  0.410714  0.450000  0.375000      2.000000
  0.446429  0.450000  0.375000      2.000000
  0.482143  0.450000  0.375000      2.000000
 -0.482143  0.450000  0.375000      2.000000
 -0.446429  0.450000  0.375000      2.000000
 -0.410714  0.450000  0.375000      2.000000
 -0.375000  0.450000  0.375000      2.000000
 -0.339286  0.450000  0.375000      2.000000
 -0.303571  0.450000  0.375000      2.000000
 -0.267857  0.450000  0.375000      2.000000
 -0.232143  0.450000  0.375000      2.000000
 -0.196429  0.450000  0.375000      2.000000
 -0.160714  0.450000  0.375000      2.000000
 -0.125000  0.450000  0.375000      2.000000
 -0.089286  0.450000  0.375000      2.000000
 -0.053571  0.450000  0.375000      2.000000
 -0.017857  0.450000  0.375000      2.000000
  0.017857 -0.450000  0.375000      2.000000
  0.053571 -0.450000  0.375000      2.000000
  0.089286 -0.450000  0.375000      2.000000
  0.125000 -0.450000  0.375000      2.000000
  0.160714 -0.450000  0.375000      2.000000
  0.196429 -0.450000  0.375000      2.000000
  0.232143 -0.450000  0.375000      2.000000
  0.267857 -0.450000  0.375000      2.000000
  0.303571 -0.450000  0.375000      2.000000
  0.339286 -0.450000  0.375000      2.000000
  0.375000 -0.450000  0.375000      2.000000
  0.410714 -0.450000  0.375000      2.000000
  0.446429 -0.450000  0.375000      2.000000
  0.482143 -0.450000  0.375000      2.000000
 -0.482143 -0.450000  0.375000      2.000000
 -0.446429 -0.450000  0.375000      2.000000
 -0.410714 -0.450000  0.375000      2.000000
 -0.375000 -0.450000  0.375000      2.000000
 -0.339286 -0.450000  0.375000      2.000000
 -0.303571 -0.450000  0.375000      2.000000
 -0.267857 -0.450000  0.375000      2.000000
 -0.232143 -0.450000  0.375000      2.000000
 -0.196429 -0.450000  0.375000      2.000000
 -0.160714 -0.450000  0.375000      2.000000
 -0.125000 -0.450000  0.375000      2.000000
 -0.089286 -0.450000  0.375000      2.000000
 -0.053571 -0.450000  0.375000      2.000000
 -0.017857 -0.450000  0.375000      2.000000
  0.017857 -0.350000  0.375000      2.000000
  0.053571 -0.350000  0.375000      2.000000
  0.089286 -0.350000  0.375000      2.000000
  0.125000 -0.350000  0.375000      2.000000
  0.160714 -0.350000  0.375000      2.000000
  0.196429 -0.350000  0.375000      2.000000
  0.232143 -0.350000  0.375000      2.000000
  0.267857 -0.350000  0.375000      2.000000
  0.303571 -0.350000  0.375000      2.000000
  0.339286 -0.350000  0.375000      2.000000
  0.375000 -0.350000  0.375000      2.000000
  0.410714 -0.350000  0.375000      2.000000
  0.446429 -0.350000  0.375000      2.000000
  0.482143 -0.350000  0.375000      2.000000
 -0.482143 -0.350000  0.375000      2.000000
 -0.446429 -0.350000  0.375000      2.000000
 -0.410714 -0.350000  0.375000      2.000000
 -0.375000 -0.350000  0.375000      2.000000
 -0.339286 -0.350000  0.375000      2.000000
 -0.303571 -0.350000  0.375000      2.000000
 -0.267857 -0.350000  0.375000      2.000000
 -0.232143 -0.350000  0.375000      2.000000
 -0.196429 -0.350000  0.375000      2.000000
 -0.160714 -0.350000  0.375000      2.000000
 -0.125000 -0.350000  0.375000      2.000000
 -0.089286 -0.350000  0.375000      2.000000
 -0.053571 -0.350000  0.375000      2.000000
 -0.017857 -0.350000  0.375000      2.000000
  0.017857 -0.250000  0.375000      2.000000
  0.053571 -0.250000  0.375000      2.000000
  0.089286 -0.250000  0.375000      2.000000
  0.125000 -0.250000  0.375000      2.000000
  0.160714 -0.250000  0.375000      2.000000
  0.196429 -0.250000  0.375000      2.000000
  0.232143 -0.250000  0.375000      2.000000
  0.267857 -0.250000  0.375000      2.000000
  0.303571 -0.250000  0.375000      2.000000
  0.339286 -0.250000  0.375000      2.000000
  0.375000 -0.250000  0.375000      2.000000
  0.410714 -0.250000  0.375000      2.000000
  0.446429 -0.250000  0.375000      2.000000
  0.482143 -0.250000  0.375000      2.000000
 -0.482143 -0.250000  0.375000      2.000000
 -0.446429 -0.250000  0.375000      2.000000
 -0.410714 -0.250000  0.375000      2.000000
 -0.375000 -0.250000  0.375000      2.000000
 -0.339286 -0.250000  0.375000      2.000000
 -0.303571 -0.250000  0.375000      2.000000
 -0.267857 -0.250000  0.375000      2.000000
 -0.232143 -0.250000  0.375000      2.000000
 -0.196429 -0.250000  0.375000      2.000000
 -0.160714 -0.250000  0.375000      2.000000
 -0.125000 -0.250000  0.375000      2.000000
 -0.089286 -0.250000  0.375000      2.000000
 -0.053571 -0.250000  0.375000      2.000000
 -0.017857 -0.250000  0.375000      2.000000
  0.017857 -0.150000  0.375000      2.000000
  0.053571 -0.150000  0.375000      2.000000
  0.089286 -0.150000  0.375000      2.000000
  0.125000 -0.150000  0.375000      2.000000
  0.160714 -0.150000  0.375000      2.000000
  0.196429 -0.150000  0.375000      2.000000
  0.232143 -0.150000  0.375000      2.000000
  0.267857 -0.150000  0.375000      2.000000
  0.303571 -0.150000  0.375000      2.000000
  0.339286 -0.150000  0.375000      2.000000
  0.375000 -0.150000  0.375000      2.000000
  0.410714 -0.150000  0.375000      2.000000
  0.446429 -0.150000  0.375000      2.000000
  0.482143 -0.150000  0.375000      2.000000
 -0.482143 -0.150000  0.375000      2.000000
 -0.446429 -0.150000  0.375000      2.000000
 -0.410714 -0.150000  0.375000      2.000000
 -0.375000 -0.150000  0.375000      2.000000
 -0.339286 -0.150000  0.375000      2.000000
 -0.303571 -0.150000  0.375000      2.000000
 -0.267857 -0.150000  0.375000      2.000000
 -0.232143 -0.150000  0.375000      2.000000
 -0.196429 -0.150000  0.375000      2.000000
 -0.160714 -0.150000  0.375000      2.000000
 -0.125000 -0.150000  0.375000      2.000000
 -0.089286 -0.150000  0.375000      2.000000
 -0.053571 -0.150000  0.375000      2.000000
 -0.017857 -0.150000  0.375000      2.000000
  0.017857 -0.050000  0.375000      2.000000
  0.053571 -0.050000  0.375000      2.000000
  0.089286 -0.050000  0.375000      2.000000
  0.125000 -0.050000  0.375000      2.000000
  0.160714 -0.050000  0.375000      2.000000
  0.196429 -0.050000  0.375000      2.000000
  0.232143 -0.050000  0.375000      2.000000
  0.267857 -0.050000  0.375000      2.000000
  0.303571 -0.050000  0.375000      2.000000
  0.339286 -0.050000  0.375000      2.000000
  0.375000 -0.050000  0.375000      2.000000
  0.410714 -0.050000  0.375000      2.000000
  0.446429 -0.050000  0.375000      2.000000
  0.482143 -0.050000  0.375000      2.000000
 -0.482143 -0.050000  0.375000      2.000000
 -0.446429 -0.050000  0.375000      2.000000
 -0.410714 -0.050000  0.375000      2.000000
 -0.375000 -0.050000  0.375000      2.000000
 -0.339286 -0.050000  0.375000      2.000000
 -0.303571 -0.050000  0.375000      2.000000
 -0.267857 -0.050000  0.375000      2.000000
 -0.232143 -0.050000  0.375000      2.000000
 -0.196429 -0.050000  0.375000      2.000000
 -0.160714 -0.050000  0.375000      2.000000
 -0.125000 -0.050000  0.375000      2.000000
 -0.089286 -0.050000  0.375000      2.000000
 -0.053571 -0.050000  0.375000      2.000000
 -0.017857 -0.050000  0.375000      2.000000
 
 Following cartesian coordinates:
            Coordinates               Weight
  0.006253  0.005836  0.005156      2.000000
  0.018758  0.005836  0.005150      2.000000
  0.031263  0.005836  0.005145      2.000000
  0.043768  0.005836  0.005140      2.000000
  0.056273  0.005836  0.005135      2.000000
  0.068779  0.005836  0.005130      2.000000
  0.081284  0.005836  0.005125      2.000000
  0.093789  0.005836  0.005119      2.000000
  0.106294  0.005836  0.005114      2.000000
  0.118799  0.005836  0.005109      2.000000
  0.131305  0.005836  0.005104      2.000000
  0.143810  0.005836  0.005099      2.000000
  0.156315  0.005836  0.005094      2.000000
  0.168820  0.005836  0.005088      2.000000
 -0.168820  0.005836  0.005228      2.000000
 -0.156315  0.005836  0.005223      2.000000
 -0.143810  0.005836  0.005217      2.000000
 -0.131305  0.005836  0.005212      2.000000
 -0.118799  0.005836  0.005207      2.000000
 -0.106294  0.005836  0.005202      2.000000
 -0.093789  0.005836  0.005197      2.000000
 -0.081284  0.005836  0.005192      2.000000
 -0.068779  0.005836  0.005187      2.000000
 -0.056273  0.005836  0.005181      2.000000
 -0.043768  0.005836  0.005176      2.000000
 -0.031263  0.005836  0.005171      2.000000
 -0.018758  0.005836  0.005166      2.000000
 -0.006253  0.005836  0.005161      2.000000
  0.006253  0.017507  0.005156      2.000000
  0.018758  0.017507  0.005150      2.000000
  0.031263  0.017507  0.005145      2.000000
  0.043768  0.017507  0.005140      2.000000
  0.056273  0.017507  0.005135      2.000000
  0.068779  0.017507  0.005130      2.000000
  0.081284  0.017507  0.005125      2.000000
  0.093789  0.017507  0.005119      2.000000
  0.106294  0.017507  0.005114      2.000000
  0.118799  0.017507  0.005109      2.000000
  0.131305  0.017507  0.005104      2.000000
  0.143810  0.017507  0.005099      2.000000
  0.156315  0.017507  0.005094      2.000000
  0.168820  0.017507  0.005088      2.000000
 -0.168820  0.017507  0.005228      2.000000
 -0.156315  0.017507  0.005223      2.000000
 -0.143810  0.017507  0.005217      2.000000
 -0.131305  0.017507  0.005212      2.000000
 -0.118799  0.017507  0.005207      2.000000
 -0.106294  0.017507  0.005202      2.000000
 -0.093789  0.017507  0.005197      2.000000
 -0.081284  0.017507  0.005192      2.000000
 -0.068779  0.017507  0.005187      2.000000
 -0.056273  0.017507  0.005181      2.000000
 -0.043768  0.017507  0.005176      2.000000
 -0.031263  0.017507  0.005171      2.000000
 -0.018758  0.017507  0.005166      2.000000
 -0.006253  0.017507  0.005161      2.000000
  0.006253  0.029179  0.005156      2.000000
  0.018758  0.029179  0.005150      2.000000
  0.031263  0.029179  0.005145      2.000000
  0.043768  0.029179  0.005140      2.000000
  0.056273  0.029179  0.005135      2.000000
  0.068779  0.029179  0.005130      2.000000
  0.081284  0.029179  0.005125      2.000000
  0.093789  0.029179  0.005119      2.000000
  0.106294  0.029179  0.005114      2.000000
  0.118799  0.029179  0.005109      2.000000
  0.131305  0.029179  0.005104      2.000000
  0.143810  0.029179  0.005099      2.000000
  0.156315  0.029179  0.005094      2.000000
  0.168820  0.029179  0.005088      2.000000
 -0.168820  0.029179  0.005228      2.000000
 -0.156315  0.029179  0.005223      2.000000
 -0.143810  0.029179  0.005217      2.000000
 -0.131305  0.029179  0.005212      2.000000
 -0.118799  0.029179  0.005207      2.000000
 -0.106294  0.029179  0.005202      2.000000
 -0.093789  0.029179  0.005197      2.000000
 -0.081284  0.029179  0.005192      2.000000
 -0.068779  0.029179  0.005187      2.000000
 -0.056273  0.029179  0.005181      2.000000
 -0.043768  0.029179  0.005176      2.000000
 -0.031263  0.029179  0.005171      2.000000
 -0.018758  0.029179  0.005166      2.000000
 -0.006253  0.029179  0.005161      2.000000
  0.006253  0.040850  0.005156      2.000000
  0.018758  0.040850  0.005150      2.000000
  0.031263  0.040850  0.005145      2.000000
  0.043768  0.040850  0.005140      2.000000
  0.056273  0.040850  0.005135      2.000000
  0.068779  0.040850  0.005130      2.000000
  0.081284  0.040850  0.005125      2.000000
  0.093789  0.040850  0.005119      2.000000
  0.106294  0.040850  0.005114      2.000000
  0.118799  0.040850  0.005109      2.000000
  0.131305  0.040850  0.005104      2.000000
  0.143810  0.040850  0.005099      2.000000
  0.156315  0.040850  0.005094      2.000000
  0.168820  0.040850  0.005088      2.000000
 -0.168820  0.040850  0.005228      2.000000
 -0.156315  0.040850  0.005223      2.000000
 -0.143810  0.040850  0.005217      2.000000
 -0.131305  0.040850  0.005212      2.000000
 -0.118799  0.040850  0.005207      2.000000
 -0.106294  0.040850  0.005202      2.000000
 -0.093789  0.040850  0.005197      2.000000
 -0.081284  0.040850  0.005192      2.000000
 -0.068779  0.040850  0.005187      2.000000
 -0.056273  0.040850  0.005181      2.000000
 -0.043768  0.040850  0.005176      2.000000
 -0.031263  0.040850  0.005171      2.000000
 -0.018758  0.040850  0.005166      2.000000
 -0.006253  0.040850  0.005161      2.000000
  0.006253  0.052522  0.005156      2.000000
  0.018758  0.052522  0.005150      2.000000
  0.031263  0.052522  0.005145      2.000000
  0.043768  0.052522  0.005140      2.000000
  0.056273  0.052522  0.005135      2.000000
  0.068779  0.052522  0.005130      2.000000
  0.081284  0.052522  0.005125      2.000000
  0.093789  0.052522  0.005119      2.000000
  0.106294  0.052522  0.005114      2.000000
  0.118799  0.052522  0.005109      2.000000
  0.131305  0.052522  0.005104      2.000000
  0.143810  0.052522  0.005099      2.000000
  0.156315  0.052522  0.005094      2.000000
  0.168820  0.052522  0.005088      2.000000
 -0.168820  0.052522  0.005228      2.000000
 -0.156315  0.052522  0.005223      2.000000
 -0.143810  0.052522  0.005217      2.000000
 -0.131305  0.052522  0.005212      2.000000
 -0.118799  0.052522  0.005207      2.000000
 -0.106294  0.052522  0.005202      2.000000
 -0.093789  0.052522  0.005197      2.000000
 -0.081284  0.052522  0.005192      2.000000
 -0.068779  0.052522  0.005187      2.000000
 -0.056273  0.052522  0.005181      2.000000
 -0.043768  0.052522  0.005176      2.000000
 -0.031263  0.052522  0.005171      2.000000
 -0.018758  0.052522  0.005166      2.000000
 -0.006253  0.052522  0.005161      2.000000
  0.006253 -0.052522  0.005156      2.000000
  0.018758 -0.052522  0.005150      2.000000
  0.031263 -0.052522  0.005145      2.000000
  0.043768 -0.052522  0.005140      2.000000
  0.056273 -0.052522  0.005135      2.000000
  0.068779 -0.052522  0.005130      2.000000
  0.081284 -0.052522  0.005125      2.000000
  0.093789 -0.052522  0.005119      2.000000
  0.106294 -0.052522  0.005114      2.000000
  0.118799 -0.052522  0.005109      2.000000
  0.131305 -0.052522  0.005104      2.000000
  0.143810 -0.052522  0.005099      2.000000
  0.156315 -0.052522  0.005094      2.000000
  0.168820 -0.052522  0.005088      2.000000
 -0.168820 -0.052522  0.005228      2.000000
 -0.156315 -0.052522  0.005223      2.000000
 -0.143810 -0.052522  0.005217      2.000000
 -0.131305 -0.052522  0.005212      2.000000
 -0.118799 -0.052522  0.005207      2.000000
 -0.106294 -0.052522  0.005202      2.000000
 -0.093789 -0.052522  0.005197      2.000000
 -0.081284 -0.052522  0.005192      2.000000
 -0.068779 -0.052522  0.005187      2.000000
 -0.056273 -0.052522  0.005181      2.000000
 -0.043768 -0.052522  0.005176      2.000000
 -0.031263 -0.052522  0.005171      2.000000
 -0.018758 -0.052522  0.005166      2.000000
 -0.006253 -0.052522  0.005161      2.000000
  0.006253 -0.040850  0.005156      2.000000
  0.018758 -0.040850  0.005150      2.000000
  0.031263 -0.040850  0.005145      2.000000
  0.043768 -0.040850  0.005140      2.000000
  0.056273 -0.040850  0.005135      2.000000
  0.068779 -0.040850  0.005130      2.000000
  0.081284 -0.040850  0.005125      2.000000
  0.093789 -0.040850  0.005119      2.000000
  0.106294 -0.040850  0.005114      2.000000
  0.118799 -0.040850  0.005109      2.000000
  0.131305 -0.040850  0.005104      2.000000
  0.143810 -0.040850  0.005099      2.000000
  0.156315 -0.040850  0.005094      2.000000
  0.168820 -0.040850  0.005088      2.000000
 -0.168820 -0.040850  0.005228      2.000000
 -0.156315 -0.040850  0.005223      2.000000
 -0.143810 -0.040850  0.005217      2.000000
 -0.131305 -0.040850  0.005212      2.000000
 -0.118799 -0.040850  0.005207      2.000000
 -0.106294 -0.040850  0.005202      2.000000
 -0.093789 -0.040850  0.005197      2.000000
 -0.081284 -0.040850  0.005192      2.000000
 -0.068779 -0.040850  0.005187      2.000000
 -0.056273 -0.040850  0.005181      2.000000
 -0.043768 -0.040850  0.005176      2.000000
 -0.031263 -0.040850  0.005171      2.000000
 -0.018758 -0.040850  0.005166      2.000000
 -0.006253 -0.040850  0.005161      2.000000
  0.006253 -0.029179  0.005156      2.000000
  0.018758 -0.029179  0.005150      2.000000
  0.031263 -0.029179  0.005145      2.000000
  0.043768 -0.029179  0.005140      2.000000
  0.056273 -0.029179  0.005135      2.000000
  0.068779 -0.029179  0.005130      2.000000
  0.081284 -0.029179  0.005125      2.000000
  0.093789 -0.029179  0.005119      2.000000
  0.106294 -0.029179  0.005114      2.000000
  0.118799 -0.029179  0.005109      2.000000
  0.131305 -0.029179  0.005104      2.000000
  0.143810 -0.029179  0.005099      2.000000
  0.156315 -0.029179  0.005094      2.000000
  0.168820 -0.029179  0.005088      2.000000
 -0.168820 -0.029179  0.005228      2.000000
 -0.156315 -0.029179  0.005223      2.000000
 -0.143810 -0.029179  0.005217      2.000000
 -0.131305 -0.029179  0.005212      2.000000
 -0.118799 -0.029179  0.005207      2.000000
 -0.106294 -0.029179  0.005202      2.000000
 -0.093789 -0.029179  0.005197      2.000000
 -0.081284 -0.029179  0.005192      2.000000
 -0.068779 -0.029179  0.005187      2.000000
 -0.056273 -0.029179  0.005181      2.000000
 -0.043768 -0.029179  0.005176      2.000000
 -0.031263 -0.029179  0.005171      2.000000
 -0.018758 -0.029179  0.005166      2.000000
 -0.006253 -0.029179  0.005161      2.000000
  0.006253 -0.017507  0.005156      2.000000
  0.018758 -0.017507  0.005150      2.000000
  0.031263 -0.017507  0.005145      2.000000
  0.043768 -0.017507  0.005140      2.000000
  0.056273 -0.017507  0.005135      2.000000
  0.068779 -0.017507  0.005130      2.000000
  0.081284 -0.017507  0.005125      2.000000
  0.093789 -0.017507  0.005119      2.000000
  0.106294 -0.017507  0.005114      2.000000
  0.118799 -0.017507  0.005109      2.000000
  0.131305 -0.017507  0.005104      2.000000
  0.143810 -0.017507  0.005099      2.000000
  0.156315 -0.017507  0.005094      2.000000
  0.168820 -0.017507  0.005088      2.000000
 -0.168820 -0.017507  0.005228      2.000000
 -0.156315 -0.017507  0.005223      2.000000
 -0.143810 -0.017507  0.005217      2.000000
 -0.131305 -0.017507  0.005212      2.000000
 -0.118799 -0.017507  0.005207      2.000000
 -0.106294 -0.017507  0.005202      2.000000
 -0.093789 -0.017507  0.005197      2.000000
 -0.081284 -0.017507  0.005192      2.000000
 -0.068779 -0.017507  0.005187      2.000000
 -0.056273 -0.017507  0.005181      2.000000
 -0.043768 -0.017507  0.005176      2.000000
 -0.031263 -0.017507  0.005171      2.000000
 -0.018758 -0.017507  0.005166      2.000000
 -0.006253 -0.017507  0.005161      2.000000
  0.006253 -0.005836  0.005156      2.000000
  0.018758 -0.005836  0.005150      2.000000
  0.031263 -0.005836  0.005145      2.000000
  0.043768 -0.005836  0.005140      2.000000
  0.056273 -0.005836  0.005135      2.000000
  0.068779 -0.005836  0.005130      2.000000
  0.081284 -0.005836  0.005125      2.000000
  0.093789 -0.005836  0.005119      2.000000
  0.106294 -0.005836  0.005114      2.000000
  0.118799 -0.005836  0.005109      2.000000
  0.131305 -0.005836  0.005104      2.000000
  0.143810 -0.005836  0.005099      2.000000
  0.156315 -0.005836  0.005094      2.000000
  0.168820 -0.005836  0.005088      2.000000
 -0.168820 -0.005836  0.005228      2.000000
 -0.156315 -0.005836  0.005223      2.000000
 -0.143810 -0.005836  0.005217      2.000000
 -0.131305 -0.005836  0.005212      2.000000
 -0.118799 -0.005836  0.005207      2.000000
 -0.106294 -0.005836  0.005202      2.000000
 -0.093789 -0.005836  0.005197      2.000000
 -0.081284 -0.005836  0.005192      2.000000
 -0.068779 -0.005836  0.005187      2.000000
 -0.056273 -0.005836  0.005181      2.000000
 -0.043768 -0.005836  0.005176      2.000000
 -0.031263 -0.005836  0.005171      2.000000
 -0.018758 -0.005836  0.005166      2.000000
 -0.006253 -0.005836  0.005161      2.000000
  0.006253  0.005836  0.015472      2.000000
  0.018758  0.005836  0.015467      2.000000
  0.031263  0.005836  0.015461      2.000000
  0.043768  0.005836  0.015456      2.000000
  0.056273  0.005836  0.015451      2.000000
  0.068779  0.005836  0.015446      2.000000
  0.081284  0.005836  0.015441      2.000000
  0.093789  0.005836  0.015436      2.000000
  0.106294  0.005836  0.015431      2.000000
  0.118799  0.005836  0.015425      2.000000
  0.131305  0.005836  0.015420      2.000000
  0.143810  0.005836  0.015415      2.000000
  0.156315  0.005836  0.015410      2.000000
  0.168820  0.005836  0.015405      2.000000
 -0.168820  0.005836  0.015544      2.000000
 -0.156315  0.005836  0.015539      2.000000
 -0.143810  0.005836  0.015534      2.000000
 -0.131305  0.005836  0.015529      2.000000
 -0.118799  0.005836  0.015523      2.000000
 -0.106294  0.005836  0.015518      2.000000
 -0.093789  0.005836  0.015513      2.000000
 -0.081284  0.005836  0.015508      2.000000
 -0.068779  0.005836  0.015503      2.000000
 -0.056273  0.005836  0.015498      2.000000
 -0.043768  0.005836  0.015492      2.000000
 -0.031263  0.005836  0.015487      2.000000
 -0.018758  0.005836  0.015482      2.000000
 -0.006253  0.005836  0.015477      2.000000
  0.006253  0.017507  0.015472      2.000000
  0.018758  0.017507  0.015467      2.000000
  0.031263  0.017507  0.015461      2.000000
  0.043768  0.017507  0.015456      2.000000
  0.056273  0.017507  0.015451      2.000000
  0.068779  0.017507  0.015446      2.000000
  0.081284  0.017507  0.015441      2.000000
  0.093789  0.017507  0.015436      2.000000
  0.106294  0.017507  0.015431      2.000000
  0.118799  0.017507  0.015425      2.000000
  0.131305  0.017507  0.015420      2.000000
  0.143810  0.017507  0.015415      2.000000
  0.156315  0.017507  0.015410      2.000000
  0.168820  0.017507  0.015405      2.000000
 -0.168820  0.017507  0.015544      2.000000
 -0.156315  0.017507  0.015539      2.000000
 -0.143810  0.017507  0.015534      2.000000
 -0.131305  0.017507  0.015529      2.000000
 -0.118799  0.017507  0.015523      2.000000
 -0.106294  0.017507  0.015518      2.000000
 -0.093789  0.017507  0.015513      2.000000
 -0.081284  0.017507  0.015508      2.000000
 -0.068779  0.017507  0.015503      2.000000
 -0.056273  0.017507  0.015498      2.000000
 -0.043768  0.017507  0.015492      2.000000
 -0.031263  0.017507  0.015487      2.000000
 -0.018758  0.017507  0.015482      2.000000
 -0.006253  0.017507  0.015477      2.000000
  0.006253  0.029179  0.015472      2.000000
  0.018758  0.029179  0.015467      2.000000
  0.031263  0.029179  0.015461      2.000000
  0.043768  0.029179  0.015456      2.000000
  0.056273  0.029179  0.015451      2.000000
  0.068779  0.029179  0.015446      2.000000
  0.081284  0.029179  0.015441      2.000000
  0.093789  0.029179  0.015436      2.000000
  0.106294  0.029179  0.015431      2.000000
  0.118799  0.029179  0.015425      2.000000
  0.131305  0.029179  0.015420      2.000000
  0.143810  0.029179  0.015415      2.000000
  0.156315  0.029179  0.015410      2.000000
  0.168820  0.029179  0.015405      2.000000
 -0.168820  0.029179  0.015544      2.000000
 -0.156315  0.029179  0.015539      2.000000
 -0.143810  0.029179  0.015534      2.000000
 -0.131305  0.029179  0.015529      2.000000
 -0.118799  0.029179  0.015523      2.000000
 -0.106294  0.029179  0.015518      2.000000
 -0.093789  0.029179  0.015513      2.000000
 -0.081284  0.029179  0.015508      2.000000
 -0.068779  0.029179  0.015503      2.000000
 -0.056273  0.029179  0.015498      2.000000
 -0.043768  0.029179  0.015492      2.000000
 -0.031263  0.029179  0.015487      2.000000
 -0.018758  0.029179  0.015482      2.000000
 -0.006253  0.029179  0.015477      2.000000
  0.006253  0.040850  0.015472      2.000000
  0.018758  0.040850  0.015467      2.000000
  0.031263  0.040850  0.015461      2.000000
  0.043768  0.040850  0.015456      2.000000
  0.056273  0.040850  0.015451      2.000000
  0.068779  0.040850  0.015446      2.000000
  0.081284  0.040850  0.015441      2.000000
  0.093789  0.040850  0.015436      2.000000
  0.106294  0.040850  0.015431      2.000000
  0.118799  0.040850  0.015425      2.000000
  0.131305  0.040850  0.015420      2.000000
  0.143810  0.040850  0.015415      2.000000
  0.156315  0.040850  0.015410      2.000000
  0.168820  0.040850  0.015405      2.000000
 -0.168820  0.040850  0.015544      2.000000
 -0.156315  0.040850  0.015539      2.000000
 -0.143810  0.040850  0.015534      2.000000
 -0.131305  0.040850  0.015529      2.000000
 -0.118799  0.040850  0.015523      2.000000
 -0.106294  0.040850  0.015518      2.000000
 -0.093789  0.040850  0.015513      2.000000
 -0.081284  0.040850  0.015508      2.000000
 -0.068779  0.040850  0.015503      2.000000
 -0.056273  0.040850  0.015498      2.000000
 -0.043768  0.040850  0.015492      2.000000
 -0.031263  0.040850  0.015487      2.000000
 -0.018758  0.040850  0.015482      2.000000
 -0.006253  0.040850  0.015477      2.000000
  0.006253  0.052522  0.015472      2.000000
  0.018758  0.052522  0.015467      2.000000
  0.031263  0.052522  0.015461      2.000000
  0.043768  0.052522  0.015456      2.000000
  0.056273  0.052522  0.015451      2.000000
  0.068779  0.052522  0.015446      2.000000
  0.081284  0.052522  0.015441      2.000000
  0.093789  0.052522  0.015436      2.000000
  0.106294  0.052522  0.015431      2.000000
  0.118799  0.052522  0.015425      2.000000
  0.131305  0.052522  0.015420      2.000000
  0.143810  0.052522  0.015415      2.000000
  0.156315  0.052522  0.015410      2.000000
  0.168820  0.052522  0.015405      2.000000
 -0.168820  0.052522  0.015544      2.000000
 -0.156315  0.052522  0.015539      2.000000
 -0.143810  0.052522  0.015534      2.000000
 -0.131305  0.052522  0.015529      2.000000
 -0.118799  0.052522  0.015523      2.000000
 -0.106294  0.052522  0.015518      2.000000
 -0.093789  0.052522  0.015513      2.000000
 -0.081284  0.052522  0.015508      2.000000
 -0.068779  0.052522  0.015503      2.000000
 -0.056273  0.052522  0.015498      2.000000
 -0.043768  0.052522  0.015492      2.000000
 -0.031263  0.052522  0.015487      2.000000
 -0.018758  0.052522  0.015482      2.000000
 -0.006253  0.052522  0.015477      2.000000
  0.006253 -0.052522  0.015472      2.000000
  0.018758 -0.052522  0.015467      2.000000
  0.031263 -0.052522  0.015461      2.000000
  0.043768 -0.052522  0.015456      2.000000
  0.056273 -0.052522  0.015451      2.000000
  0.068779 -0.052522  0.015446      2.000000
  0.081284 -0.052522  0.015441      2.000000
  0.093789 -0.052522  0.015436      2.000000
  0.106294 -0.052522  0.015431      2.000000
  0.118799 -0.052522  0.015425      2.000000
  0.131305 -0.052522  0.015420      2.000000
  0.143810 -0.052522  0.015415      2.000000
  0.156315 -0.052522  0.015410      2.000000
  0.168820 -0.052522  0.015405      2.000000
 -0.168820 -0.052522  0.015544      2.000000
 -0.156315 -0.052522  0.015539      2.000000
 -0.143810 -0.052522  0.015534      2.000000
 -0.131305 -0.052522  0.015529      2.000000
 -0.118799 -0.052522  0.015523      2.000000
 -0.106294 -0.052522  0.015518      2.000000
 -0.093789 -0.052522  0.015513      2.000000
 -0.081284 -0.052522  0.015508      2.000000
 -0.068779 -0.052522  0.015503      2.000000
 -0.056273 -0.052522  0.015498      2.000000
 -0.043768 -0.052522  0.015492      2.000000
 -0.031263 -0.052522  0.015487      2.000000
 -0.018758 -0.052522  0.015482      2.000000
 -0.006253 -0.052522  0.015477      2.000000
  0.006253 -0.040850  0.015472      2.000000
  0.018758 -0.040850  0.015467      2.000000
  0.031263 -0.040850  0.015461      2.000000
  0.043768 -0.040850  0.015456      2.000000
  0.056273 -0.040850  0.015451      2.000000
  0.068779 -0.040850  0.015446      2.000000
  0.081284 -0.040850  0.015441      2.000000
  0.093789 -0.040850  0.015436      2.000000
  0.106294 -0.040850  0.015431      2.000000
  0.118799 -0.040850  0.015425      2.000000
  0.131305 -0.040850  0.015420      2.000000
  0.143810 -0.040850  0.015415      2.000000
  0.156315 -0.040850  0.015410      2.000000
  0.168820 -0.040850  0.015405      2.000000
 -0.168820 -0.040850  0.015544      2.000000
 -0.156315 -0.040850  0.015539      2.000000
 -0.143810 -0.040850  0.015534      2.000000
 -0.131305 -0.040850  0.015529      2.000000
 -0.118799 -0.040850  0.015523      2.000000
 -0.106294 -0.040850  0.015518      2.000000
 -0.093789 -0.040850  0.015513      2.000000
 -0.081284 -0.040850  0.015508      2.000000
 -0.068779 -0.040850  0.015503      2.000000
 -0.056273 -0.040850  0.015498      2.000000
 -0.043768 -0.040850  0.015492      2.000000
 -0.031263 -0.040850  0.015487      2.000000
 -0.018758 -0.040850  0.015482      2.000000
 -0.006253 -0.040850  0.015477      2.000000
  0.006253 -0.029179  0.015472      2.000000
  0.018758 -0.029179  0.015467      2.000000
  0.031263 -0.029179  0.015461      2.000000
  0.043768 -0.029179  0.015456      2.000000
  0.056273 -0.029179  0.015451      2.000000
  0.068779 -0.029179  0.015446      2.000000
  0.081284 -0.029179  0.015441      2.000000
  0.093789 -0.029179  0.015436      2.000000
  0.106294 -0.029179  0.015431      2.000000
  0.118799 -0.029179  0.015425      2.000000
  0.131305 -0.029179  0.015420      2.000000
  0.143810 -0.029179  0.015415      2.000000
  0.156315 -0.029179  0.015410      2.000000
  0.168820 -0.029179  0.015405      2.000000
 -0.168820 -0.029179  0.015544      2.000000
 -0.156315 -0.029179  0.015539      2.000000
 -0.143810 -0.029179  0.015534      2.000000
 -0.131305 -0.029179  0.015529      2.000000
 -0.118799 -0.029179  0.015523      2.000000
 -0.106294 -0.029179  0.015518      2.000000
 -0.093789 -0.029179  0.015513      2.000000
 -0.081284 -0.029179  0.015508      2.000000
 -0.068779 -0.029179  0.015503      2.000000
 -0.056273 -0.029179  0.015498      2.000000
 -0.043768 -0.029179  0.015492      2.000000
 -0.031263 -0.029179  0.015487      2.000000
 -0.018758 -0.029179  0.015482      2.000000
 -0.006253 -0.029179  0.015477      2.000000
  0.006253 -0.017507  0.015472      2.000000
  0.018758 -0.017507  0.015467      2.000000
  0.031263 -0.017507  0.015461      2.000000
  0.043768 -0.017507  0.015456      2.000000
  0.056273 -0.017507  0.015451      2.000000
  0.068779 -0.017507  0.015446      2.000000
  0.081284 -0.017507  0.015441      2.000000
  0.093789 -0.017507  0.015436      2.000000
  0.106294 -0.017507  0.015431      2.000000
  0.118799 -0.017507  0.015425      2.000000
  0.131305 -0.017507  0.015420      2.000000
  0.143810 -0.017507  0.015415      2.000000
  0.156315 -0.017507  0.015410      2.000000
  0.168820 -0.017507  0.015405      2.000000
 -0.168820 -0.017507  0.015544      2.000000
 -0.156315 -0.017507  0.015539      2.000000
 -0.143810 -0.017507  0.015534      2.000000
 -0.131305 -0.017507  0.015529      2.000000
 -0.118799 -0.017507  0.015523      2.000000
 -0.106294 -0.017507  0.015518      2.000000
 -0.093789 -0.017507  0.015513      2.000000
 -0.081284 -0.017507  0.015508      2.000000
 -0.068779 -0.017507  0.015503      2.000000
 -0.056273 -0.017507  0.015498      2.000000
 -0.043768 -0.017507  0.015492      2.000000
 -0.031263 -0.017507  0.015487      2.000000
 -0.018758 -0.017507  0.015482      2.000000
 -0.006253 -0.017507  0.015477      2.000000
  0.006253 -0.005836  0.015472      2.000000
  0.018758 -0.005836  0.015467      2.000000
  0.031263 -0.005836  0.015461      2.000000
  0.043768 -0.005836  0.015456      2.000000
  0.056273 -0.005836  0.015451      2.000000
  0.068779 -0.005836  0.015446      2.000000
  0.081284 -0.005836  0.015441      2.000000
  0.093789 -0.005836  0.015436      2.000000
  0.106294 -0.005836  0.015431      2.000000
  0.118799 -0.005836  0.015425      2.000000
  0.131305 -0.005836  0.015420      2.000000
  0.143810 -0.005836  0.015415      2.000000
  0.156315 -0.005836  0.015410      2.000000
  0.168820 -0.005836  0.015405      2.000000
 -0.168820 -0.005836  0.015544      2.000000
 -0.156315 -0.005836  0.015539      2.000000
 -0.143810 -0.005836  0.015534      2.000000
 -0.131305 -0.005836  0.015529      2.000000
 -0.118799 -0.005836  0.015523      2.000000
 -0.106294 -0.005836  0.015518      2.000000
 -0.093789 -0.005836  0.015513      2.000000
 -0.081284 -0.005836  0.015508      2.000000
 -0.068779 -0.005836  0.015503      2.000000
 -0.056273 -0.005836  0.015498      2.000000
 -0.043768 -0.005836  0.015492      2.000000
 -0.031263 -0.005836  0.015487      2.000000
 -0.018758 -0.005836  0.015482      2.000000
 -0.006253 -0.005836  0.015477      2.000000
 


--------------------------------------------------------------------------------------------------------




 Dimension of arrays:
   k-points           NKPTS =    560   k-points in BZ     NKDIM =    560   number of bands    NBANDS=     64
   number of dos      NEDOS =    301   number of ions     NIONS =     16
   non local maximal  LDIM  =      4   non local SUM 2l+1 LMDIM =      8
   total plane-waves  NPLWV = 179200
   max r-space proj   IRMAX =   3380   max aug-charges    IRDMAX=  11960
   dimension x,y,z NGX =    20 NGY =   56 NGZ =  160
   dimension x,y,z NGXF=    40 NGYF=  112 NGZF=  320
   support grid    NGXF=    40 NGYF=  112 NGZF=  320
   ions per type =              16
   NGX,Y,Z   is equivalent  to a cutoff of  11.64, 10.87, 10.98 a.u.
   NGXF,Y,Z  is equivalent  to a cutoff of  23.28, 21.73, 21.95 a.u.

 SYSTEM =  Al fcc relaxation                       
 POSCAR =  Al16                                    

 Startparameter for this run:
   NWRITE =      2    write-flag & timer
   PREC   = accura    normal or accurate (medium, high low for compatibility)
   ISTART =      0    job   : 0-new  1-cont  2-samecut
   ICHARG =      2    charge: 1-file 2-atom 10-const
   ISPIN  =      1    spin polarized calculation?
   LNONCOLLINEAR =      F non collinear calculations
   LSORBIT =      F    spin-orbit coupling
   INIWAV =      1    electr: 0-lowe 1-rand  2-diag
   LASPH  =      F    aspherical Exc in radial PAW
   METAGGA=      F    non-selfconsistent MetaGGA calc.

 Electronic Relaxation 1
   ENCUT  =  400.0 eV  29.40 Ry    5.42 a.u.   4.66 13.97 39.52*2*pi/ulx,y,z
   ENINI  =  400.0     initial cutoff
   ENAUG  =  291.1 eV  augmentation charge cutoff
   NELM   =     60;   NELMIN=  4; NELMDL= -5     # of ELM steps 
   EDIFF  = 0.1E-05   stopping-criterion for ELM
   LREAL  =      T    real-space projection
   NLSPLINE    = F    spline interpolate recip. space projectors
   LCOMPAT=      F    compatible to vasp.4.4
   GGA_COMPAT  = T    GGA compatible to vasp.4.4-vasp.4.6
   LMAXPAW     = -100 max onsite density
   LMAXMIX     =    2 max onsite mixed and CHGCAR
   VOSKOWN=      0    Vosko Wilk Nusair interpolation
   ROPT   =   -0.00025
 Ionic relaxation
   EDIFFG = 0.1E-04   stopping-criterion for IOM
   NSW    =      0    number of steps for IOM
   NBLOCK =      1;   KBLOCK =      1    inner block; outer block 
   IBRION =     -1    ionic relax: 0-MD 1-quasi-New 2-CG
   NFREE  =      1    steps in history (QN), initial steepest desc. (CG)
   ISIF   =      3    stress and relaxation
   IWAVPR =     10    prediction:  0-non 1-charg 2-wave 3-comb
   ISYM   =      2    0-nonsym 1-usesym 2-fastsym
   LCORR  =      T    Harris-Foulkes like correction to forces

   POTIM  = 0.5000    time-step for ionic-motion
   TEIN   =    0.0    initial temperature
   TEBEG  =    0.0;   TEEND  =   0.0 temperature during run
   SMASS  =  -3.00    Nose mass-parameter (am)
   estimated Nose-frequenzy (Omega)   =  0.10E-29 period in steps =****** mass=  -0.186E-27a.u.
   SCALEE = 1.0000    scale energy and forces
   NPACO  =    256;   APACO  = 16.0  distance and # of slots for P.C.
   PSTRESS=    0.0 pullay stress

  Mass of Ions in am
   POMASS =  26.98
  Ionic Valenz
   ZVAL   =   3.00
  Atomic Wigner-Seitz radii
   RWIGS  =  -1.00
  virtual crystal weights 
   VCA    =   1.00
   NELECT =      48.0000    total number of electrons
   NUPDOWN=      -1.0000    fix difference up-down

 DOS related values:
   EMIN   =  10.00;   EMAX   =-10.00  energy-range for DOS
   EFERMI =   0.00
   ISMEAR =     1;   SIGMA  =   0.20  broadening in eV -4-tet -1-fermi 0-gaus

 Electronic relaxation 2 (details)
   IALGO  =     68    algorithm
   LDIAG  =      T    sub-space diagonalisation (order eigenvalues)
   LSUBROT=      F    optimize rotation matrix (better conditioning)
   TURBO    =      0    0=normal 1=particle mesh
   IRESTART =      0    0=no restart 2=restart with 2 vectors
   NREBOOT  =      0    no. of reboots
   NMIN     =      0    reboot dimension
   EREF     =   0.00    reference energy to select bands
   IMIX   =      4    mixing-type and parameters
     AMIX     =   0.40;   BMIX     =  1.00
     AMIX_MAG =   1.60;   BMIX_MAG =  1.00
     AMIN     =   0.10
     WC   =   100.;   INIMIX=   1;  MIXPRE=   1;  MAXMIX= -45

 Intra band minimization:
   WEIMIN = 0.0000     energy-eigenvalue tresh-hold
   EBREAK =  0.39E-08  absolut break condition
   DEPER  =   0.30     relativ break condition  

   TIME   =   0.40     timestep for ELM

  volume/ion in A,a.u.               =      37.06       250.10
  Fermi-wavevector in a.u.,A,eV,Ry     =   0.708176  1.338259  6.823510  0.501514
  Thomas-Fermi vector in A             =   1.794422
 
 Write flags
   LWAVE        =      F    write WAVECAR
   LDOWNSAMPLE  =      F    k-point downsampling of WAVECAR
   LCHARG       =      F    write CHGCAR
   LVTOT        =      F    write LOCPOT, total local potential
   LVHAR        =      F    write LOCPOT, Hartree potential only
   LELF         =      F    write electronic localiz. function (ELF)
   LORBIT       =      0    0 simple, 1 ext, 2 COOP (PROOUT), +10 PAW based schemes


 Dipole corrections
   LMONO  =      F    monopole corrections only (constant potential shift)
   LDIPOL =      F    correct potential (dipole corrections)
   IDIPOL =      0    1-x, 2-y, 3-z, 4-all directions 
   EPSILON=  1.0000000 bulk dielectric constant

 Exchange correlation treatment:
   GGA     =    --    GGA type
   LEXCH   =     8    internal setting for exchange type
   VOSKOWN=      0    Vosko Wilk Nusair interpolation
   LHFCALC =     F    Hartree Fock is set to
   LHFONE  =     F    Hartree Fock one center treatment
   AEXX    =    0.0000 exact exchange contribution

 Linear response parameters
   LEPSILON=     F    determine dielectric tensor
   LRPA    =     F    only Hartree local field effects (RPA)
   LNABLA  =     F    use nabla operator in PAW spheres
   LVEL    =     F    velocity operator in full k-point grid
   LINTERFAST=   F  fast interpolation
   KINTER  =     0    interpolate to denser k-point grid
   CSHIFT  =0.1000    complex shift for real part using Kramers Kronig
   OMEGAMAX=  -1.0    maximum frequency
   DEG_THRESHOLD= 0.2000000E-02 threshold for treating states as degnerate
   RTIME   =   -0.100 relaxation time in fs
  (WPLASMAI=    0.000 imaginary part of plasma frequency in eV, 0.658/RTIME)
   DFIELD  = 0.0000000 0.0000000 0.0000000 field for delta impulse in time
 
 Orbital magnetization related:
   ORBITALMAG=     F  switch on orbital magnetization
   LCHIMAG   =     F  perturbation theory with respect to B field
   DQ        =  0.001000  dq finite difference perturbation B field
   LLRAUG    =     F  two centre corrections for induced B field



--------------------------------------------------------------------------------------------------------


 Static calculation
 charge density and potential will be updated during run
 non-spin polarized calculation
 RMM-DIIS sequential band-by-band and
  variant of blocked Davidson during initial phase
 perform sub-space diagonalisation
    before iterative eigenvector-optimisation
 modified Broyden-mixing scheme, WC =      100.0
 initial mixing is a Kerker type mixing with AMIX =  0.4000 and BMIX =      1.0000
 Hartree-type preconditioning will be used
 using additional bands           40
 real space projection scheme for non local part
 use partial core corrections
 calculate Harris-corrections to forces 
   (improved forces if not selfconsistent)
 use gradient corrections 
 use of overlap-Matrix (Vanderbilt PP)
 Methfessel and Paxton  Order N= 1 SIGMA  =   0.20


--------------------------------------------------------------------------------------------------------


  energy-cutoff  :      400.00
  volume of cell :      592.98
      direct lattice vectors                 reciprocal lattice vectors
     2.855954575  0.000000000  0.000000000     0.350145625  0.000000000 -0.000144488
    -0.000000000  8.567863724  0.000000000     0.000000000  0.116715208  0.000000000
     0.010000000  0.000000000 24.233578159    -0.000000000 -0.000000000  0.041265058

  length of vectors
     2.855954575  8.567863724 24.233580222     0.350145655  0.116715208  0.041265058


 
 k-points in units of 2pi/SCALE and weight: Automatic kpoint scheme                 
   0.00625260  0.00583576  0.00515555       0.002
   0.01875780  0.00583576  0.00515039       0.002
   0.03126300  0.00583576  0.00514523       0.002
   0.04376820  0.00583576  0.00514007       0.002
   0.05627340  0.00583576  0.00513491       0.002
   0.06877860  0.00583576  0.00512975       0.002
   0.08128381  0.00583576  0.00512459       0.002
   0.09378901  0.00583576  0.00511943       0.002
   0.10629421  0.00583576  0.00511427       0.002
   0.11879941  0.00583576  0.00510911       0.002
   0.13130461  0.00583576  0.00510395       0.002
   0.14380981  0.00583576  0.00509879       0.002
   0.15631501  0.00583576  0.00509363       0.002
   0.16882021  0.00583576  0.00508847       0.002
  -0.16882021  0.00583576  0.00522780       0.002
  -0.15631501  0.00583576  0.00522264       0.002
  -0.14380981  0.00583576  0.00521748       0.002
  -0.13130461  0.00583576  0.00521232       0.002
  -0.11879941  0.00583576  0.00520715       0.002
  -0.10629421  0.00583576  0.00520199       0.002
  -0.09378901  0.00583576  0.00519683       0.002
  -0.08128381  0.00583576  0.00519167       0.002
  -0.06877860  0.00583576  0.00518651       0.002
  -0.05627340  0.00583576  0.00518135       0.002
  -0.04376820  0.00583576  0.00517619       0.002
  -0.03126300  0.00583576  0.00517103       0.002
  -0.01875780  0.00583576  0.00516587       0.002
  -0.00625260  0.00583576  0.00516071       0.002
   0.00625260  0.01750728  0.00515555       0.002
   0.01875780  0.01750728  0.00515039       0.002
   0.03126300  0.01750728  0.00514523       0.002
   0.04376820  0.01750728  0.00514007       0.002
   0.05627340  0.01750728  0.00513491       0.002
   0.06877860  0.01750728  0.00512975       0.002
   0.08128381  0.01750728  0.00512459       0.002
   0.09378901  0.01750728  0.00511943       0.002
   0.10629421  0.01750728  0.00511427       0.002
   0.11879941  0.01750728  0.00510911       0.002
   0.13130461  0.01750728  0.00510395       0.002
   0.14380981  0.01750728  0.00509879       0.002
   0.15631501  0.01750728  0.00509363       0.002
   0.16882021  0.01750728  0.00508847       0.002
  -0.16882021  0.01750728  0.00522780       0.002
  -0.15631501  0.01750728  0.00522264       0.002
  -0.14380981  0.01750728  0.00521748       0.002
  -0.13130461  0.01750728  0.00521232       0.002
  -0.11879941  0.01750728  0.00520715       0.002
  -0.10629421  0.01750728  0.00520199       0.002
  -0.09378901  0.01750728  0.00519683       0.002
  -0.08128381  0.01750728  0.00519167       0.002
  -0.06877860  0.01750728  0.00518651       0.002
  -0.05627340  0.01750728  0.00518135       0.002
  -0.04376820  0.01750728  0.00517619       0.002
  -0.03126300  0.01750728  0.00517103       0.002
  -0.01875780  0.01750728  0.00516587       0.002
  -0.00625260  0.01750728  0.00516071       0.002
   0.00625260  0.02917880  0.00515555       0.002
   0.01875780  0.02917880  0.00515039       0.002
   0.03126300  0.02917880  0.00514523       0.002
   0.04376820  0.02917880  0.00514007       0.002
   0.05627340  0.02917880  0.00513491       0.002
   0.06877860  0.02917880  0.00512975       0.002
   0.08128381  0.02917880  0.00512459       0.002
   0.09378901  0.02917880  0.00511943       0.002
   0.10629421  0.02917880  0.00511427       0.002
   0.11879941  0.02917880  0.00510911       0.002
   0.13130461  0.02917880  0.00510395       0.002
   0.14380981  0.02917880  0.00509879       0.002
   0.15631501  0.02917880  0.00509363       0.002
   0.16882021  0.02917880  0.00508847       0.002
  -0.16882021  0.02917880  0.00522780       0.002
  -0.15631501  0.02917880  0.00522264       0.002
  -0.14380981  0.02917880  0.00521748       0.002
  -0.13130461  0.02917880  0.00521232       0.002
  -0.11879941  0.02917880  0.00520715       0.002
  -0.10629421  0.02917880  0.00520199       0.002
  -0.09378901  0.02917880  0.00519683       0.002
  -0.08128381  0.02917880  0.00519167       0.002
  -0.06877860  0.02917880  0.00518651       0.002
  -0.05627340  0.02917880  0.00518135       0.002
  -0.04376820  0.02917880  0.00517619       0.002
  -0.03126300  0.02917880  0.00517103       0.002
  -0.01875780  0.02917880  0.00516587       0.002
  -0.00625260  0.02917880  0.00516071       0.002
   0.00625260  0.04085032  0.00515555       0.002
   0.01875780  0.04085032  0.00515039       0.002
   0.03126300  0.04085032  0.00514523       0.002
   0.04376820  0.04085032  0.00514007       0.002
   0.05627340  0.04085032  0.00513491       0.002
   0.06877860  0.04085032  0.00512975       0.002
   0.08128381  0.04085032  0.00512459       0.002
   0.09378901  0.04085032  0.00511943       0.002
   0.10629421  0.04085032  0.00511427       0.002
   0.11879941  0.04085032  0.00510911       0.002
   0.13130461  0.04085032  0.00510395       0.002
   0.14380981  0.04085032  0.00509879       0.002
   0.15631501  0.04085032  0.00509363       0.002
   0.16882021  0.04085032  0.00508847       0.002
  -0.16882021  0.04085032  0.00522780       0.002
  -0.15631501  0.04085032  0.00522264       0.002
  -0.14380981  0.04085032  0.00521748       0.002
  -0.13130461  0.04085032  0.00521232       0.002
  -0.11879941  0.04085032  0.00520715       0.002
  -0.10629421  0.04085032  0.00520199       0.002
  -0.09378901  0.04085032  0.00519683       0.002
  -0.08128381  0.04085032  0.00519167       0.002
  -0.06877860  0.04085032  0.00518651       0.002
  -0.05627340  0.04085032  0.00518135       0.002
  -0.04376820  0.04085032  0.00517619       0.002
  -0.03126300  0.04085032  0.00517103       0.002
  -0.01875780  0.04085032  0.00516587       0.002
  -0.00625260  0.04085032  0.00516071       0.002
   0.00625260  0.05252184  0.00515555       0.002
   0.01875780  0.05252184  0.00515039       0.002
   0.03126300  0.05252184  0.00514523       0.002
   0.04376820  0.05252184  0.00514007       0.002
   0.05627340  0.05252184  0.00513491       0.002
   0.06877860  0.05252184  0.00512975       0.002
   0.08128381  0.05252184  0.00512459       0.002
   0.09378901  0.05252184  0.00511943       0.002
   0.10629421  0.05252184  0.00511427       0.002
   0.11879941  0.05252184  0.00510911       0.002
   0.13130461  0.05252184  0.00510395       0.002
   0.14380981  0.05252184  0.00509879       0.002
   0.15631501  0.05252184  0.00509363       0.002
   0.16882021  0.05252184  0.00508847       0.002
  -0.16882021  0.05252184  0.00522780       0.002
  -0.15631501  0.05252184  0.00522264       0.002
  -0.14380981  0.05252184  0.00521748       0.002
  -0.13130461  0.05252184  0.00521232       0.002
  -0.11879941  0.05252184  0.00520715       0.002
  -0.10629421  0.05252184  0.00520199       0.002
  -0.09378901  0.05252184  0.00519683       0.002
  -0.08128381  0.05252184  0.00519167       0.002
  -0.06877860  0.05252184  0.00518651       0.002
  -0.05627340  0.05252184  0.00518135       0.002
  -0.04376820  0.05252184  0.00517619       0.002
  -0.03126300  0.05252184  0.00517103       0.002
  -0.01875780  0.05252184  0.00516587       0.002
  -0.00625260  0.05252184  0.00516071       0.002
   0.00625260 -0.05252184  0.00515555       0.002
   0.01875780 -0.05252184  0.00515039       0.002
   0.03126300 -0.05252184  0.00514523       0.002
   0.04376820 -0.05252184  0.00514007       0.002
   0.05627340 -0.05252184  0.00513491       0.002
   0.06877860 -0.05252184  0.00512975       0.002
   0.08128381 -0.05252184  0.00512459       0.002
   0.09378901 -0.05252184  0.00511943       0.002
   0.10629421 -0.05252184  0.00511427       0.002
   0.11879941 -0.05252184  0.00510911       0.002
   0.13130461 -0.05252184  0.00510395       0.002
   0.14380981 -0.05252184  0.00509879       0.002
   0.15631501 -0.05252184  0.00509363       0.002
   0.16882021 -0.05252184  0.00508847       0.002
  -0.16882021 -0.05252184  0.00522780       0.002
  -0.15631501 -0.05252184  0.00522264       0.002
  -0.14380981 -0.05252184  0.00521748       0.002
  -0.13130461 -0.05252184  0.00521232       0.002
  -0.11879941 -0.05252184  0.00520715       0.002
  -0.10629421 -0.05252184  0.00520199       0.002
  -0.09378901 -0.05252184  0.00519683       0.002
  -0.08128381 -0.05252184  0.00519167       0.002
  -0.06877860 -0.05252184  0.00518651       0.002
  -0.05627340 -0.05252184  0.00518135       0.002
  -0.04376820 -0.05252184  0.00517619       0.002
  -0.03126300 -0.05252184  0.00517103       0.002
  -0.01875780 -0.05252184  0.00516587       0.002
  -0.00625260 -0.05252184  0.00516071       0.002
   0.00625260 -0.04085032  0.00515555       0.002
   0.01875780 -0.04085032  0.00515039       0.002
   0.03126300 -0.04085032  0.00514523       0.002
   0.04376820 -0.04085032  0.00514007       0.002
   0.05627340 -0.04085032  0.00513491       0.002
   0.06877860 -0.04085032  0.00512975       0.002
   0.08128381 -0.04085032  0.00512459       0.002
   0.09378901 -0.04085032  0.00511943       0.002
   0.10629421 -0.04085032  0.00511427       0.002
   0.11879941 -0.04085032  0.00510911       0.002
   0.13130461 -0.04085032  0.00510395       0.002
   0.14380981 -0.04085032  0.00509879       0.002
   0.15631501 -0.04085032  0.00509363       0.002
   0.16882021 -0.04085032  0.00508847       0.002
  -0.16882021 -0.04085032  0.00522780       0.002
  -0.15631501 -0.04085032  0.00522264       0.002
  -0.14380981 -0.04085032  0.00521748       0.002
  -0.13130461 -0.04085032  0.00521232       0.002
  -0.11879941 -0.04085032  0.00520715       0.002
  -0.10629421 -0.04085032  0.00520199       0.002
  -0.09378901 -0.04085032  0.00519683       0.002
  -0.08128381 -0.04085032  0.00519167       0.002
  -0.06877860 -0.04085032  0.00518651       0.002
[...]
     33       4.3076     -0.00000
     34       4.5210     -0.00000
     35       4.7765     -0.00000
     36       4.9523     -0.00000
     37       5.1108     -0.00000
     38       5.2618     -0.00000
     39       5.4453     -0.00000
     40       5.5574     -0.00000
     41       5.7125     -0.00000
     42       5.8050     -0.00000
     43       6.0541     -0.00000
     44       6.3963     -0.00000
     45       6.5182     -0.00000
     46       6.6345     -0.00000
     47       6.9468      0.00000
     48       7.0156      0.00000
     49       7.1919      0.00000
     50       7.3618      0.00000
     51       7.5182      0.00000
     52       7.6218      0.00000
     53       7.7518      0.00000
     54       7.8450      0.00000
     55       8.1376      0.00000
     56       8.2330      0.00000
     57       8.3317      0.00000
     58       8.4636      0.00000
     59       8.6534      0.00000
     60       8.7054      0.00000
     61       8.7839      0.00000
     62       9.3582      0.00000
     63       9.6999      0.00000
     64       9.8230      0.00000

 k-point   557 :      -0.1250   -0.0500    0.3750
  band No.  band energies     occupation 
      1      -9.2051      2.00000
      2      -8.3690      2.00000
      3      -7.4326      2.00000
      4      -7.1337      2.00000
      5      -6.9550      2.00000
      6      -6.5876      2.00000
      7      -6.2025      2.00000
      8      -5.4386      2.00000
      9      -5.2059      2.00000
     10      -4.8451      2.00000
     11      -3.5206      2.00000
     12      -3.3504      2.00000
     13      -3.0991      2.00000
     14      -1.8332      2.00000
     15      -1.5113      2.00000
     16      -1.4381      2.00000
     17      -1.2356      2.00000
     18      -1.1638      2.00000
     19      -0.8109      2.00000
     20      -0.1076      2.00000
     21       0.5465      2.00000
     22       0.6939      2.00003
     23       0.9397      2.01144
     24       1.2072      1.95928
     25       1.5413     -0.02575
     26       2.3737     -0.00000
     27       2.4075     -0.00000
     28       3.0489     -0.00000
     29       3.2658     -0.00000
     30       3.7388     -0.00000
     31       3.8833     -0.00000
     32       4.3142     -0.00000
     33       4.4762     -0.00000
     34       4.9396     -0.00000
     35       5.1432     -0.00000
     36       5.3055     -0.00000
     37       5.3717     -0.00000
     38       5.4999     -0.00000
     39       5.7656     -0.00000
     40       6.0100     -0.00000
     41       6.1317     -0.00000
     42       6.1921     -0.00000
     43       6.4905     -0.00000
     44       6.6007     -0.00000
     45       6.7083     -0.00000
     46       6.9239      0.00000
     47       7.1709      0.00000
     48       7.2633      0.00000
     49       7.3360      0.00000
     50       7.4965      0.00000
     51       7.5680      0.00000
     52       7.6172      0.00000
     53       7.8565      0.00000
     54       7.9496      0.00000
     55       8.1563      0.00000
     56       8.3277      0.00000
     57       8.4485      0.00000
     58       8.6620      0.00000
     59       8.7062      0.00000
     60       8.7817      0.00000
     61       9.1124      0.00000
     62       9.3284      0.00000
     63       9.6305      0.00000
     64       9.7842      0.00000

 k-point   558 :      -0.0893   -0.0500    0.3750
  band No.  band energies     occupation 
      1      -9.3436      2.00000
      2      -8.5068      2.00000
      3      -7.5694      2.00000
      4      -7.2704      2.00000
      5      -7.0915      2.00000
      6      -6.7237      2.00000
      7      -6.3383      2.00000
      8      -5.5742      2.00000
      9      -5.3410      2.00000
     10      -4.9799      2.00000
     11      -3.6555      2.00000
     12      -3.4845      2.00000
     13      -3.2326      2.00000
     14      -1.9640      2.00000
     15      -1.6409      2.00000
     16      -1.5677      2.00000
     17      -1.3647      2.00000
     18      -1.2926      2.00000
     19      -0.9412      2.00000
     20      -0.2375      2.00000
     21       0.4271      2.00000
     22       0.5673      2.00000
     23       0.8130      2.00077
     24       1.0863      2.06585
     25       1.4157      0.54486
     26       2.2584     -0.00000
     27       2.3143     -0.00000
     28       2.9275     -0.00000
     29       3.1487     -0.00000
     30       3.6494     -0.00000
     31       4.2735     -0.00000
     32       4.5500     -0.00000
     33       4.7839     -0.00000
     34       4.9727     -0.00000
     35       5.1591     -0.00000
     36       5.3842     -0.00000
     37       5.5914     -0.00000
     38       5.9363     -0.00000
     39       6.2296     -0.00000
     40       6.4011     -0.00000
     41       6.4670     -0.00000
     42       6.7455     -0.00000
     43       6.9285      0.00000
     44       6.9848      0.00000
     45       7.0893      0.00000
     46       7.1187      0.00000
     47       7.2529      0.00000
     48       7.2861      0.00000
     49       7.4778      0.00000
     50       7.6206      0.00000
     51       7.7208      0.00000
     52       7.8648      0.00000
     53       8.1640      0.00000
     54       8.3052      0.00000
     55       8.4902      0.00000
     56       8.5627      0.00000
     57       8.5892      0.00000
     58       8.6447      0.00000
     59       8.7432      0.00000
     60       8.7854      0.00000
     61       8.9521      0.00000
     62       9.0769      0.00000
     63       9.3600      0.00000
     64       9.6447      0.00000

 k-point   559 :      -0.0536   -0.0500    0.3750
  band No.  band energies     occupation 
      1      -9.4360      2.00000
      2      -8.5988      2.00000
      3      -7.6606      2.00000
      4      -7.3616      2.00000
      5      -7.1825      2.00000
      6      -6.8145      2.00000
      7      -6.4288      2.00000
      8      -5.6647      2.00000
      9      -5.4312      2.00000
     10      -5.0698      2.00000
     11      -3.7455      2.00000
     12      -3.5740      2.00000
     13      -3.3218      2.00000
     14      -2.0512      2.00000
     15      -1.7274      2.00000
     16      -1.6543      2.00000
     17      -1.4509      2.00000
     18      -1.3785      2.00000
     19      -1.0282      2.00000
     20      -0.3244      2.00000
     21       0.3456      2.00000
     22       0.4818      2.00000
     23       0.7279      2.00008
     24       1.0036      2.03044
     25       1.3311      1.23808
     26       2.1750     -0.00000
     27       2.2438     -0.00000
     28       2.8442     -0.00000
     29       3.0676     -0.00000
     30       3.5744     -0.00000
     31       4.2082     -0.00000
     32       4.5214     -0.00000
     33       4.8912     -0.00000
     34       5.0984     -0.00000
     35       5.2070     -0.00000
     36       5.5226     -0.00000
     37       5.8492     -0.00000
     38       6.2122     -0.00000
     39       6.3595     -0.00000
     40       6.6424     -0.00000
     41       6.8353      0.00000
     42       6.9376      0.00000
     43       6.9938      0.00000
     44       7.1654      0.00000
     45       7.2968      0.00000
     46       7.3805      0.00000
     47       7.5876      0.00000
     48       7.7515      0.00000
     49       7.8597      0.00000
     50       7.9805      0.00000
     51       8.1258      0.00000
     52       8.2649      0.00000
     53       8.3450      0.00000
     54       8.3925      0.00000
     55       8.5096      0.00000
     56       8.5461      0.00000
     57       8.6622      0.00000
     58       8.7812      0.00000
     59       8.9478      0.00000
     60       9.3036      0.00000
     61       9.5187      0.00000
     62       9.5681      0.00000
     63       9.7294      0.00000
     64      10.0379      0.00000

 k-point   560 :      -0.0179   -0.0500    0.3750
  band No.  band energies     occupation 
      1      -9.4822      2.00000
      2      -8.6448      2.00000
      3      -7.7063      2.00000
      4      -7.4073      2.00000
      5      -7.2281      2.00000
      6      -6.8599      2.00000
      7      -6.4742      2.00000
      8      -5.7099      2.00000
      9      -5.4764      2.00000
     10      -5.1148      2.00000
     11      -3.7906      2.00000
     12      -3.6188      2.00000
     13      -3.3664      2.00000
     14      -2.0949      2.00000
     15      -1.7707      2.00000
     16      -1.6977      2.00000
     17      -1.4941      2.00000
     18      -1.4215      2.00000
     19      -1.0718      2.00000
     20      -0.3679      2.00000
     21       0.3044      2.00000
     22       0.4388      2.00000
     23       0.6853      2.00002
     24       0.9619      2.01659
     25       1.2886      1.56064
     26       2.1329     -0.00000
     27       2.2067     -0.00000
     28       2.8021     -0.00000
     29       3.0265     -0.00000
     30       3.5353     -0.00000
     31       4.1724     -0.00000
     32       4.4921     -0.00000
     33       4.8551     -0.00000
     34       5.0622     -0.00000
     35       5.1968     -0.00000
     36       5.5046     -0.00000
     37       6.1201     -0.00000
     38       6.3275     -0.00000
     39       6.5558     -0.00000
     40       6.6205     -0.00000
     41       6.9664      0.00000
     42       7.0149      0.00000
     43       7.1496      0.00000
     44       7.2756      0.00000
     45       7.3613      0.00000
     46       7.6918      0.00000
     47       7.7506      0.00000
     48       7.7751      0.00000
     49       8.1572      0.00000
     50       8.2530      0.00000
     51       8.3900      0.00000
     52       8.4161      0.00000
     53       8.5645      0.00000
     54       8.5907      0.00000
     55       8.7675      0.00000
     56       8.7796      0.00000
     57       8.8705      0.00000
     58       8.9674      0.00000
     59       9.1991      0.00000
     60       9.2769      0.00000
     61       9.3103      0.00000
     62       9.4380      0.00000
     63       9.5726      0.00000
     64       9.6411      0.00000


--------------------------------------------------------------------------------------------------------


 soft charge-density along one line, spin component           1
         0         1         2         3         4         5         6         7         8         9
 total charge-density along one line
 
 pseudopotential strength for first ion, spin component:           1
  8.670  14.788  -0.000  -0.000  -0.000  -0.000  -0.001  -0.000
 14.788  25.221  -0.000  -0.000  -0.000  -0.000  -0.001  -0.000
 -0.000  -0.000   1.978  -0.000  -0.000   5.749  -0.000  -0.000
 -0.000  -0.000  -0.000   1.978   0.000  -0.000   5.749   0.000
 -0.000  -0.000  -0.000   0.000   1.978  -0.000   0.000   5.749
 -0.000  -0.000   5.749  -0.000  -0.000  16.598  -0.000  -0.000
 -0.001  -0.001  -0.000   5.749   0.000  -0.000  16.599   0.000
 -0.000  -0.000  -0.000   0.000   5.749  -0.000   0.000  16.599
 total augmentation occupancy for first ion, spin component:           1
  3.232  -0.766   0.027   0.071   0.000  -0.004  -0.010  -0.000
 -0.766   0.253  -0.012  -0.041  -0.000   0.001   0.004   0.000
  0.027  -0.012   1.092  -0.026   0.000  -0.071   0.003  -0.000
  0.071  -0.041  -0.026   1.024  -0.000   0.003  -0.063   0.000
  0.000  -0.000   0.000  -0.000   1.081  -0.000   0.000  -0.071
 -0.004   0.001  -0.071   0.003  -0.000   0.005  -0.000   0.000
 -0.010   0.004   0.003  -0.063   0.000  -0.000   0.004  -0.000
 -0.000   0.000  -0.000   0.000  -0.071   0.000  -0.000   0.005


------------------------ aborting loop because EDIFF is reached ----------------------------------------


    CHARGE:  cpu time    6.0596: real time    6.2026
    FORLOC:  cpu time    0.0059: real time    0.0059
    FORNL :  cpu time   27.7355: real time   28.5684
    STRESS:  cpu time   82.5385: real time   85.0796
    FORCOR:  cpu time    0.0471: real time    0.0516
    FORHAR:  cpu time    0.0147: real time    0.0147
    MIXING:  cpu time    0.0028: real time    0.0028
    OFIELD:  cpu time    0.0000: real time    0.0000

  FORCE on cell =-STRESS in cart. coord.  units (eV):
  Direction    XX          YY          ZZ          XY          YZ          ZX
  --------------------------------------------------------------------------------------
  Alpha Z    -1.45005    -1.45005    -1.45005
  Ewald    4969.30288  4919.42970 -5698.87624     0.01935    11.11440    -0.02001
  Hartree  5055.25123  5030.52180 -5029.46860     0.00032     3.72649     0.00089
  E(xc)    -134.30726  -134.37660  -134.66314    -0.00028     0.02359     0.00130
  Local  -10411.58193-10336.23691 10344.62121    -0.01779   -14.93347     0.02226
  n-local   307.66712   306.24240   301.57541     0.00302     0.40652    -0.01487
  augment   -17.57160   -17.51224   -17.35361    -0.00012     0.01345     0.00081
  Kinetic   227.67632   229.75395   235.83673    -0.00277    -1.41796    -0.00454
  Fock        0.00000     0.00000     0.00000     0.00000     0.00000     0.00000
  -------------------------------------------------------------------------------------
  Total      -5.01329    -3.62795     0.22171     0.00172    -1.06699    -0.01416
  in kB     -13.54540    -9.80235     0.59904     0.00466    -2.88289    -0.03827
  external pressure =       -7.58 kB  Pullay stress =        0.00 kB


 VOLUME and BASIS-vectors are now :
 -----------------------------------------------------------------------------
  energy-cutoff  :      400.00
  volume of cell :      592.98
      direct lattice vectors                 reciprocal lattice vectors
     2.855954575  0.000000000  0.000000000     0.350145625  0.000000000 -0.000144488
    -0.000000000  8.567863724  0.000000000     0.000000000  0.116715208  0.000000000
     0.010000000  0.000000000 24.233578159    -0.000000000 -0.000000000  0.041265058

  length of vectors
     2.855954575  8.567863724 24.233580222     0.350145655  0.116715208  0.041265058


 FORCES acting on ions
    electron-ion (+dipol)            ewald-force                    non-local-force                 convergence-correction
 -----------------------------------------------------------------------------------------------
   0.125E-02 0.826E+01 0.170E+03   -.878E-03 -.814E+01 -.170E+03   -.199E-03 -.239E+00 -.476E+00   0.186E-08 0.316E-05 -.604E-04
   -.110E-02 -.123E+02 0.231E+03   0.739E-03 0.119E+02 -.230E+03   0.746E-03 0.483E+00 -.133E+01   -.340E-09 -.598E-05 -.679E-04
   -.119E-02 -.742E+01 0.212E+03   0.770E-03 0.726E+01 -.211E+03   0.930E-03 0.193E+00 -.125E+01   -.829E-09 0.118E-05 -.667E-04
   -.176E-02 0.128E+02 0.248E+03   0.129E-02 -.124E+02 -.247E+03   0.108E-02 -.248E+00 -.129E+01   -.279E-09 0.629E-06 -.729E-04
   0.254E-04 0.140E+01 0.187E+02   -.239E-05 -.127E+01 -.187E+02   0.243E-05 -.103E+00 -.573E-01   0.273E-08 -.101E-04 -.132E-04
   0.913E-04 -.291E+01 0.921E+02   0.670E-05 0.279E+01 -.922E+02   -.595E-04 -.224E-01 0.868E-01   0.200E-08 0.515E-05 -.394E-04
   -.250E-03 0.577E+00 0.569E+02   0.173E-04 -.509E+00 -.569E+02   0.258E-03 -.108E+00 0.422E-01   -.204E-08 0.404E-06 -.210E-04
   0.143E-03 0.411E+00 0.125E+03   0.212E-04 -.493E+00 -.125E+03   -.135E-03 0.705E-01 0.772E-01   -.193E-08 -.153E-05 -.645E-04
   -.143E-03 -.411E+00 -.125E+03   -.212E-04 0.493E+00 0.125E+03   0.135E-03 -.705E-01 -.772E-01   0.193E-08 0.153E-05 0.645E-04
   0.250E-03 -.577E+00 -.569E+02   -.173E-04 0.509E+00 0.569E+02   -.258E-03 0.108E+00 -.422E-01   0.204E-08 -.405E-06 0.210E-04
   -.913E-04 0.291E+01 -.921E+02   -.670E-05 -.279E+01 0.922E+02   0.595E-04 0.224E-01 -.868E-01   -.200E-08 -.515E-05 0.394E-04
   -.253E-04 -.140E+01 -.187E+02   0.239E-05 0.127E+01 0.187E+02   -.243E-05 0.103E+00 0.573E-01   -.273E-08 0.101E-04 0.132E-04
   0.176E-02 -.128E+02 -.248E+03   -.129E-02 0.124E+02 0.247E+03   -.108E-02 0.248E+00 0.129E+01   0.280E-09 -.629E-06 0.729E-04
   0.119E-02 0.742E+01 -.212E+03   -.770E-03 -.726E+01 0.211E+03   -.930E-03 -.193E+00 0.125E+01   0.830E-09 -.118E-05 0.667E-04
   0.110E-02 0.123E+02 -.231E+03   -.739E-03 -.119E+02 0.230E+03   -.746E-03 -.483E+00 0.133E+01   0.338E-09 0.598E-05 0.679E-04
   -.125E-02 -.826E+01 -.170E+03   0.878E-03 0.814E+01 0.170E+03   0.199E-03 0.239E+00 0.476E+00   -.187E-08 -.316E-05 0.604E-04
 -----------------------------------------------------------------------------------------------
   0.656E-07 -.295E-04 0.187E-04   0.128E-14 0.355E-14 -.853E-13   0.325E-18 0.278E-16 -.111E-15   0.123E-12 -.100E-09 -.258E-08
 
 
 POSITION                                       TOTAL-FORCE (eV/Angst)
 -----------------------------------------------------------------------------------
      2.49993      0.83299      2.35604         0.000177     -0.121566     -0.196565
      2.49938      4.64093      1.00973         0.000382      0.078634     -0.046199
      1.07168      7.02089      1.68289         0.000515      0.031567     -0.070365
      1.07112      2.26096      0.33658         0.000611      0.144337      0.164678
      2.50104      1.78497      5.04866         0.000025      0.025564     -0.033455
      2.50049      5.59291      3.70235         0.000038     -0.135761      0.017090
      1.07279      7.97287      4.37551         0.000026     -0.039686      0.050513
      1.07223      3.21295      3.02920         0.000029     -0.012041      0.012279
      2.50215      2.73696      7.74128        -0.000029      0.012041     -0.012279
      2.50160      6.54490      6.39497        -0.000026      0.039686     -0.050513
      1.07390      0.35699      7.06813        -0.000038      0.135761     -0.017090
      1.07334      4.16493      5.72182        -0.000025     -0.025564      0.033455
      2.50327      3.68894     10.43390        -0.000611     -0.144337     -0.164678
      2.50271      7.49688      9.08759        -0.000515     -0.031567      0.070365
      1.07501      1.30898      9.76075        -0.000382     -0.078634      0.046199
      1.07446      5.11692      8.41444        -0.000177      0.121566      0.196565
 -----------------------------------------------------------------------------------
    total drift:                                0.000000     -0.000030      0.000019


--------------------------------------------------------------------------------------------------------



  FREE ENERGIE OF THE ION-ELECTRON SYSTEM (eV)
  ---------------------------------------------------
  free  energy   TOTEN  =       -56.99700422 eV

  energy  without entropy=      -56.99172123  energy(sigma->0) =      -56.99524322
 


--------------------------------------------------------------------------------------------------------


    POTLOK:  cpu time    0.0536: real time    0.0551


--------------------------------------------------------------------------------------------------------


     LOOP+:  cpu time 3000.0924: real time 3082.3010
    4ORBIT:  cpu time    0.0000: real time    0.0000

 total amount of memory used by VASP MPI-rank0   245415. kBytes
=======================================================================

   base      :      30000. kBytes
   nonlr-proj:       4547. kBytes
   fftplans  :       2916. kBytes
   grid      :      10640. kBytes
   one-center:         49. kBytes
   wavefun   :     197263. kBytes
 
  
  
 General timing and accounting informations for this job:
 ========================================================
  
                  Total CPU time used (sec):     3049.529
                            User time (sec):     2662.151
                          System time (sec):      387.378
                         Elapsed time (sec):     3134.485
  
                   Maximum memory used (kb):      686500.
                   Average memory used (kb):           0.
  
                          Minor page faults:     10148844
                          Major page faults:            0
                 Voluntary context switches:          373
