<?xml version="1.0" encoding="ISO-8859-1"?>
<modeling>
 <generator>
  <i name="program" type="string">vasp </i>
  <i name="version" type="string">5.4.4.18Apr17-6-g9f103f2a35  </i>
  <i name="subversion" type="string">(build Nov 07 2022 11:18:25) complex            parallel </i>
  <i name="platform" type="string">LinuxIFC </i>
  <i name="date" type="string">2024 05 28 </i>
  <i name="time" type="string">09:46:38 </i>
 </generator>
 <incar>
  <i type="string" name="SYSTEM"> Al fcc relaxation</i>
  <i type="string" name="PREC">accurate</i>
  <i type="string" name="ALGO"> Fast</i>
  <i type="int" name="NELM">    60</i>
  <i type="int" name="NELMIN">     4</i>
  <i type="int" name="IBRION">     2</i>
  <i name="EDIFF">      0.00000100</i>
  <i type="int" name="NSW">     0</i>
  <i type="int" name="ISIF">     3</i>
  <i name="ENCUT">    400.00000000</i>
  <i type="string" name="LREAL"> Auto</i>
  <i type="int" name="ISMEAR">     1</i>
  <i name="SIGMA">      0.20000000</i>
  <i name="KSPACING">      0.08000000</i>
  <i type="logical" name="LWAVE"> F  </i>
  <i type="logical" name="LCHARG"> F  </i>
  <v type="int" name="KPOINT_BSE">    -1     0     0     0</v>
  <i type="int" name="NELM">    60</i>
 </incar>
 <structure name="primitive_cell" >
  <crystal>
   <varray name="basis" >
    <v>       2.85595457       0.00000000       0.00000000 </v>
    <v>      -0.00000000       8.56786372       0.00000000 </v>
    <v>       0.01000000       0.00000000      24.23357816 </v>
   </varray>
   <i name="volume">    592.98183471 </i>
   <varray name="rec_basis" >
    <v>       0.35014563       0.00000000      -0.00014449 </v>
    <v>       0.00000000       0.11671521       0.00000000 </v>
    <v>      -0.00000000      -0.00000000       0.04126506 </v>
   </varray>
  </crystal>
  <varray name="positions" >
   <v>      -0.12500000       0.09722222       0.09722222 </v>
   <v>       0.37500000       0.26388889       0.01388889 </v>
   <v>       0.37500000      -0.06944444       0.18055556 </v>
   <v>       0.37500000      -0.18055556       0.06944444 </v>
   <v>       0.37500000       0.37500000       0.12500000 </v>
   <v>      -0.12500000       0.20833333       0.20833333 </v>
   <v>      -0.12500000      -0.45833333       0.04166667 </v>
   <v>      -0.12500000      -0.34722222       0.15277778 </v>
   <v>       0.37500000       0.04166667       0.29166667 </v>
   <v>       0.37500000       0.48611111       0.23611111 </v>
   <v>      -0.12500000      -0.23611111       0.26388889 </v>
   <v>      -0.12500000       0.31944444       0.31944444 </v>
   <v>      -0.12500000      -0.12500000       0.37500000 </v>
   <v>       0.37500000       0.15277778       0.40277778 </v>
   <v>       0.37500000      -0.40277778       0.34722222 </v>
   <v>      -0.12500000       0.43055556       0.43055556 </v>
  </varray>
 </structure>
 <varray name="primitive_index" >
  <v type="int" >        1 </v>
  <v type="int" >        4 </v>
  <v type="int" >        7 </v>
  <v type="int" >        3 </v>
  <v type="int" >        8 </v>
  <v type="int" >        5 </v>
  <v type="int" >        2 </v>
  <v type="int" >        6 </v>
  <v type="int" >       11 </v>
  <v type="int" >       12 </v>
  <v type="int" >       10 </v>
  <v type="int" >        9 </v>
  <v type="int" >       14 </v>
  <v type="int" >       15 </v>
  <v type="int" >       16 </v>
  <v type="int" >       13 </v>
 </varray>
 <kpoints>
  <generation param="Monkhorst-Pack">
   <v type="int" name="divisions">      28       10        4 </v>
   <v name="usershift">      0.00000000       0.00000000       0.00000000 </v>
   <v name="genvec1">      0.03571429       0.00000000      -0.00000000 </v>
   <v name="genvec2">      0.00000000       0.10000000       0.00000000 </v>
   <v name="genvec3">      0.00000000       0.00000000       0.25000000 </v>
   <v name="shift">      0.50000000       0.50000000       0.50000000 </v>
  </generation>
  <varray name="kpointlist" >
   <v>       0.01785714       0.05000000       0.12500000 </v>
   <v>       0.05357143       0.05000000       0.12500000 </v>
   <v>       0.08928571       0.05000000       0.12500000 </v>
   <v>       0.12500000       0.05000000       0.12500000 </v>
   <v>       0.16071429       0.05000000       0.12500000 </v>
   <v>       0.19642857       0.05000000       0.12500000 </v>
   <v>       0.23214286       0.05000000       0.12500000 </v>
   <v>       0.26785714       0.05000000       0.12500000 </v>
   <v>       0.30357143       0.05000000       0.12500000 </v>
   <v>       0.33928571       0.05000000       0.12500000 </v>
   <v>       0.37500000       0.05000000       0.12500000 </v>
   <v>       0.41071429       0.05000000       0.12500000 </v>
   <v>       0.44642857       0.05000000       0.12500000 </v>
   <v>       0.48214286       0.05000000       0.12500000 </v>
   <v>      -0.48214286       0.05000000       0.12500000 </v>
   <v>      -0.44642857       0.05000000       0.12500000 </v>
   <v>      -0.41071429       0.05000000       0.12500000 </v>
   <v>      -0.37500000       0.05000000       0.12500000 </v>
   <v>      -0.33928571       0.05000000       0.12500000 </v>
   <v>      -0.30357143       0.05000000       0.12500000 </v>
   <v>      -0.26785714       0.05000000       0.12500000 </v>
   <v>      -0.23214286       0.05000000       0.12500000 </v>
   <v>      -0.19642857       0.05000000       0.12500000 </v>
   <v>      -0.16071429       0.05000000       0.12500000 </v>
   <v>      -0.12500000       0.05000000       0.12500000 </v>
   <v>      -0.08928571       0.05000000       0.12500000 </v>
   <v>      -0.05357143       0.05000000       0.12500000 </v>
   <v>      -0.01785714       0.05000000       0.12500000 </v>
   <v>       0.01785714       0.15000000       0.12500000 </v>
   <v>       0.05357143       0.15000000       0.12500000 </v>
   <v>       0.08928571       0.15000000       0.12500000 </v>
   <v>       0.12500000       0.15000000       0.12500000 </v>
   <v>       0.16071429       0.15000000       0.12500000 </v>
   <v>       0.19642857       0.15000000       0.12500000 </v>
   <v>       0.23214286       0.15000000       0.12500000 </v>
   <v>       0.26785714       0.15000000       0.12500000 </v>
   <v>       0.30357143       0.15000000       0.12500000 </v>
   <v>       0.33928571       0.15000000       0.12500000 </v>
   <v>       0.37500000       0.15000000       0.12500000 </v>
   <v>       0.41071429       0.15000000       0.12500000 </v>
   <v>       0.44642857       0.15000000       0.12500000 </v>
   <v>       0.48214286       0.15000000       0.12500000 </v>
   <v>      -0.48214286       0.15000000       0.12500000 </v>
   <v>      -0.44642857       0.15000000       0.12500000 </v>
   <v>      -0.41071429       0.15000000       0.12500000 </v>
   <v>      -0.37500000       0.15000000       0.12500000 </v>
   <v>      -0.33928571       0.15000000       0.12500000 </v>
   <v>      -0.30357143       0.15000000       0.12500000 </v>
   <v>      -0.26785714       0.15000000       0.12500000 </v>
   <v>      -0.23214286       0.15000000       0.12500000 </v>
   <v>      -0.19642857       0.15000000       0.12500000 </v>
   <v>      -0.16071429       0.15000000       0.12500000 </v>
   <v>      -0.12500000       0.15000000       0.12500000 </v>
   <v>      -0.08928571       0.15000000       0.12500000 </v>
   <v>      -0.05357143       0.15000000       0.12500000 </v>
   <v>      -0.01785714       0.15000000       0.12500000 </v>
   <v>       0.01785714       0.25000000       0.12500000 </v>
   <v>       0.05357143       0.25000000       0.12500000 </v>
   <v>       0.08928571       0.25000000       0.12500000 </v>
   <v>       0.12500000       0.25000000       0.12500000 </v>
   <v>       0.16071429       0.25000000       0.12500000 </v>
   <v>       0.19642857       0.25000000       0.12500000 </v>
   <v>       0.23214286       0.25000000       0.12500000 </v>
   <v>       0.26785714       0.25000000       0.12500000 </v>
   <v>       0.30357143       0.25000000       0.12500000 </v>
   <v>       0.33928571       0.25000000       0.12500000 </v>
   <v>       0.37500000       0.25000000       0.12500000 </v>
   <v>       0.41071429       0.25000000       0.12500000 </v>
   <v>       0.44642857       0.25000000       0.12500000 </v>
   <v>       0.48214286       0.25000000       0.12500000 </v>
   <v>      -0.48214286       0.25000000       0.12500000 </v>
   <v>      -0.44642857       0.25000000       0.12500000 </v>
   <v>      -0.41071429       0.25000000       0.12500000 </v>
   <v>      -0.37500000       0.25000000       0.12500000 </v>
   <v>      -0.33928571       0.25000000       0.12500000 </v>
   <v>      -0.30357143       0.25000000       0.12500000 </v>
   <v>      -0.26785714       0.25000000       0.12500000 </v>
   <v>      -0.23214286       0.25000000       0.12500000 </v>
   <v>      -0.19642857       0.25000000       0.12500000 </v>
   <v>      -0.16071429       0.25000000       0.12500000 </v>
   <v>      -0.12500000       0.25000000       0.12500000 </v>
   <v>      -0.08928571       0.25000000       0.12500000 </v>
   <v>      -0.05357143       0.25000000       0.12500000 </v>
   <v>      -0.01785714       0.25000000       0.12500000 </v>
   <v>       0.01785714       0.35000000       0.12500000 </v>
   <v>       0.05357143       0.35000000       0.12500000 </v>
   <v>       0.08928571       0.35000000       0.12500000 </v>
   <v>       0.12500000       0.35000000       0.12500000 </v>
   <v>       0.16071429       0.35000000       0.12500000 </v>
   <v>       0.19642857       0.35000000       0.12500000 </v>
   <v>       0.23214286       0.35000000       0.12500000 </v>
   <v>       0.26785714       0.35000000       0.12500000 </v>
   <v>       0.30357143       0.35000000       0.12500000 </v>
   <v>       0.33928571       0.35000000       0.12500000 </v>
   <v>       0.37500000       0.35000000       0.12500000 </v>
   <v>       0.41071429       0.35000000       0.12500000 </v>
   <v>       0.44642857       0.35000000       0.12500000 </v>
   <v>       0.48214286       0.35000000       0.12500000 </v>
   <v>      -0.48214286       0.35000000       0.12500000 </v>
   <v>      -0.44642857       0.35000000       0.12500000 </v>
   <v>      -0.41071429       0.35000000       0.12500000 </v>
   <v>      -0.37500000       0.35000000       0.12500000 </v>
   <v>      -0.33928571       0.35000000       0.12500000 </v>
   <v>      -0.30357143       0.35000000       0.12500000 </v>
   <v>      -0.26785714       0.35000000       0.12500000 </v>
   <v>      -0.23214286       0.35000000       0.12500000 </v>
   <v>      -0.19642857       0.35000000       0.12500000 </v>
   <v>      -0.16071429       0.35000000       0.12500000 </v>
   <v>      -0.12500000       0.35000000       0.12500000 </v>
   <v>      -0.08928571       0.35000000       0.12500000 </v>
   <v>      -0.05357143       0.35000000       0.12500000 </v>
   <v>      -0.01785714       0.35000000       0.12500000 </v>
   <v>       0.01785714       0.45000000       0.12500000 </v>
   <v>       0.05357143       0.45000000       0.12500000 </v>
   <v>       0.08928571       0.45000000       0.12500000 </v>
   <v>       0.12500000       0.45000000       0.12500000 </v>
   <v>       0.16071429       0.45000000       0.12500000 </v>
   <v>       0.19642857       0.45000000       0.12500000 </v>
   <v>       0.23214286       0.45000000       0.12500000 </v>
   <v>       0.26785714       0.45000000       0.12500000 </v>
   <v>       0.30357143       0.45000000       0.12500000 </v>
   <v>       0.33928571       0.45000000       0.12500000 </v>
   <v>       0.37500000       0.45000000       0.12500000 </v>
   <v>       0.41071429       0.45000000       0.12500000 </v>
   <v>       0.44642857       0.45000000       0.12500000 </v>
   <v>       0.48214286       0.45000000       0.12500000 </v>
   <v>      -0.48214286       0.45000000       0.12500000 </v>
   <v>      -0.44642857       0.45000000       0.12500000 </v>
   <v>      -0.41071429       0.45000000       0.12500000 </v>
   <v>      -0.37500000       0.45000000       0.12500000 </v>
   <v>      -0.33928571       0.45000000       0.12500000 </v>
   <v>      -0.30357143       0.45000000       0.12500000 </v>
   <v>      -0.26785714       0.45000000       0.12500000 </v>
   <v>      -0.23214286       0.45000000       0.12500000 </v>
   <v>      -0.19642857       0.45000000       0.12500000 </v>
   <v>      -0.16071429       0.45000000       0.12500000 </v>
   <v>      -0.12500000       0.45000000       0.12500000 </v>
   <v>      -0.08928571       0.45000000       0.12500000 </v>
   <v>      -0.05357143       0.45000000       0.12500000 </v>
   <v>      -0.01785714       0.45000000       0.12500000 </v>
   <v>       0.01785714      -0.45000000       0.12500000 </v>
   <v>       0.05357143      -0.45000000       0.12500000 </v>
   <v>       0.08928571      -0.45000000       0.12500000 </v>
   <v>       0.12500000      -0.45000000       0.12500000 </v>
   <v>       0.16071429      -0.45000000       0.12500000 </v>
   <v>       0.19642857      -0.45000000       0.12500000 </v>
   <v>       0.23214286      -0.45000000       0.12500000 </v>
   <v>       0.26785714      -0.45000000       0.12500000 </v>
   <v>       0.30357143      -0.45000000       0.12500000 </v>
   <v>       0.33928571      -0.45000000       0.12500000 </v>
   <v>       0.37500000      -0.45000000       0.12500000 </v>
   <v>       0.41071429      -0.45000000       0.12500000 </v>
   <v>       0.44642857      -0.45000000       0.12500000 </v>
   <v>       0.48214286      -0.45000000       0.12500000 </v>
   <v>      -0.48214286      -0.45000000       0.12500000 </v>
   <v>      -0.44642857      -0.45000000       0.12500000 </v>
   <v>      -0.41071429      -0.45000000       0.12500000 </v>
   <v>      -0.37500000      -0.45000000       0.12500000 </v>
   <v>      -0.33928571      -0.45000000       0.12500000 </v>
   <v>      -0.30357143      -0.45000000       0.12500000 </v>
   <v>      -0.26785714      -0.45000000       0.12500000 </v>
   <v>      -0.23214286      -0.45000000       0.12500000 </v>
   <v>      -0.19642857      -0.45000000       0.12500000 </v>
   <v>      -0.16071429      -0.45000000       0.12500000 </v>
   <v>      -0.12500000      -0.45000000       0.12500000 </v>
   <v>      -0.08928571      -0.45000000       0.12500000 </v>
   <v>      -0.05357143      -0.45000000       0.12500000 </v>
   <v>      -0.01785714      -0.45000000       0.12500000 </v>
   <v>       0.01785714      -0.35000000       0.12500000 </v>
   <v>       0.05357143      -0.35000000       0.12500000 </v>
   <v>       0.08928571      -0.35000000       0.12500000 </v>
   <v>       0.12500000      -0.35000000       0.12500000 </v>
   <v>       0.16071429      -0.35000000       0.12500000 </v>
   <v>       0.19642857      -0.35000000       0.12500000 </v>
   <v>       0.23214286      -0.35000000       0.12500000 </v>
   <v>       0.26785714      -0.35000000       0.12500000 </v>
   <v>       0.30357143      -0.35000000       0.12500000 </v>
   <v>       0.33928571      -0.35000000       0.12500000 </v>
   <v>       0.37500000      -0.35000000       0.12500000 </v>
   <v>       0.41071429      -0.35000000       0.12500000 </v>
   <v>       0.44642857      -0.35000000       0.12500000 </v>
   <v>       0.48214286      -0.35000000       0.12500000 </v>
   <v>      -0.48214286      -0.35000000       0.12500000 </v>
   <v>      -0.44642857      -0.35000000       0.12500000 </v>
   <v>      -0.41071429      -0.35000000       0.12500000 </v>
   <v>      -0.37500000      -0.35000000       0.12500000 </v>
   <v>      -0.33928571      -0.35000000       0.12500000 </v>
   <v>      -0.30357143      -0.35000000       0.12500000 </v>
   <v>      -0.26785714      -0.35000000       0.12500000 </v>
   <v>      -0.23214286      -0.35000000       0.12500000 </v>
   <v>      -0.19642857      -0.35000000       0.12500000 </v>
   <v>      -0.16071429      -0.35000000       0.12500000 </v>
   <v>      -0.12500000      -0.35000000       0.12500000 </v>
   <v>      -0.08928571      -0.35000000       0.12500000 </v>
   <v>      -0.05357143      -0.35000000       0.12500000 </v>
   <v>      -0.01785714      -0.35000000       0.12500000 </v>
   <v>       0.01785714      -0.25000000       0.12500000 </v>
   <v>       0.05357143      -0.25000000       0.12500000 </v>
   <v>       0.08928571      -0.25000000       0.12500000 </v>
   <v>       0.12500000      -0.25000000       0.12500000 </v>
   <v>       0.16071429      -0.25000000       0.12500000 </v>
   <v>       0.19642857      -0.25000000       0.12500000 </v>
   <v>       0.23214286      -0.25000000       0.12500000 </v>
   <v>       0.26785714      -0.25000000       0.12500000 </v>
   <v>       0.30357143      -0.25000000       0.12500000 </v>
   <v>       0.33928571      -0.25000000       0.12500000 </v>
   <v>       0.37500000      -0.25000000       0.12500000 </v>
   <v>       0.41071429      -0.25000000       0.12500000 </v>
   <v>       0.44642857      -0.25000000       0.12500000 </v>
   <v>       0.48214286      -0.25000000       0.12500000 </v>
   <v>      -0.48214286      -0.25000000       0.12500000 </v>
   <v>      -0.44642857      -0.25000000       0.12500000 </v>
   <v>      -0.41071429      -0.25000000       0.12500000 </v>
   <v>      -0.37500000      -0.25000000       0.12500000 </v>
   <v>      -0.33928571      -0.25000000       0.12500000 </v>
   <v>      -0.30357143      -0.25000000       0.12500000 </v>
   <v>      -0.26785714      -0.25000000       0.12500000 </v>
   <v>      -0.23214286      -0.25000000       0.12500000 </v>
   <v>      -0.19642857      -0.25000000       0.12500000 </v>
   <v>      -0.16071429      -0.25000000       0.12500000 </v>
   <v>      -0.12500000      -0.25000000       0.12500000 </v>
   <v>      -0.08928571      -0.25000000       0.12500000 </v>
   <v>      -0.05357143      -0.25000000       0.12500000 </v>
   <v>      -0.01785714      -0.25000000       0.12500000 </v>
   <v>       0.01785714      -0.15000000       0.12500000 </v>
   <v>       0.05357143      -0.15000000       0.12500000 </v>
   <v>       0.08928571      -0.15000000       0.12500000 </v>
   <v>       0.12500000      -0.15000000       0.12500000 </v>
   <v>       0.16071429      -0.15000000       0.12500000 </v>
   <v>       0.19642857      -0.15000000       0.12500000 </v>
   <v>       0.23214286      -0.15000000       0.12500000 </v>
   <v>       0.26785714      -0.15000000       0.12500000 </v>
   <v>       0.30357143      -0.15000000       0.12500000 </v>
   <v>       0.33928571      -0.15000000       0.12500000 </v>
   <v>       0.37500000      -0.15000000       0.12500000 </v>
   <v>       0.41071429      -0.15000000       0.12500000 </v>
   <v>       0.44642857      -0.15000000       0.12500000 </v>
   <v>       0.48214286      -0.15000000       0.12500000 </v>
   <v>      -0.48214286      -0.15000000       0.12500000 </v>
   <v>      -0.44642857      -0.15000000       0.12500000 </v>
   <v>      -0.41071429      -0.15000000       0.12500000 </v>
   <v>      -0.37500000      -0.15000000       0.12500000 </v>
   <v>      -0.33928571      -0.15000000       0.12500000 </v>
   <v>      -0.30357143      -0.15000000       0.12500000 </v>
   <v>      -0.26785714      -0.15000000       0.12500000 </v>
   <v>      -0.23214286      -0.15000000       0.12500000 </v>
   <v>      -0.19642857      -0.15000000       0.12500000 </v>
   <v>      -0.16071429      -0.15000000       0.12500000 </v>
   <v>      -0.12500000      -0.15000000       0.12500000 </v>
   <v>      -0.08928571      -0.15000000       0.12500000 </v>
   <v>      -0.05357143      -0.15000000       0.12500000 </v>
   <v>      -0.01785714      -0.15000000       0.12500000 </v>
   <v>       0.01785714      -0.05000000       0.12500000 </v>
   <v>       0.05357143      -0.05000000       0.12500000 </v>
   <v>       0.08928571      -0.05000000       0.12500000 </v>
   <v>       0.12500000      -0.05000000       0.12500000 </v>
   <v>       0.16071429      -0.05000000       0.12500000 </v>
   <v>       0.19642857      -0.05000000       0.12500000 </v>
   <v>       0.23214286      -0.05000000       0.12500000 </v>
   <v>       0.26785714      -0.05000000       0.12500000 </v>
   <v>       0.30357143      -0.05000000       0.12500000 </v>
   <v>       0.33928571      -0.05000000       0.12500000 </v>
   <v>       0.37500000      -0.05000000       0.12500000 </v>
   <v>       0.41071429      -0.05000000       0.12500000 </v>
   <v>       0.44642857      -0.05000000       0.12500000 </v>
   <v>       0.48214286      -0.05000000       0.12500000 </v>
   <v>      -0.48214286      -0.05000000       0.12500000 </v>
   <v>      -0.44642857      -0.05000000       0.12500000 </v>
   <v>      -0.41071429      -0.05000000       0.12500000 </v>
   <v>      -0.37500000      -0.05000000       0.12500000 </v>
   <v>      -0.33928571      -0.05000000       0.12500000 </v>
   <v>      -0.30357143      -0.05000000       0.12500000 </v>
   <v>      -0.26785714      -0.05000000       0.12500000 </v>
   <v>      -0.23214286      -0.05000000       0.12500000 </v>
   <v>      -0.19642857      -0.05000000       0.12500000 </v>
   <v>      -0.16071429      -0.05000000       0.12500000 </v>
   <v>      -0.12500000      -0.05000000       0.12500000 </v>
   <v>      -0.08928571      -0.05000000       0.12500000 </v>
   <v>      -0.05357143      -0.05000000       0.12500000 </v>
   <v>      -0.01785714      -0.05000000       0.12500000 </v>
   <v>       0.01785714       0.05000000       0.37500000 </v>
   <v>       0.05357143       0.05000000       0.37500000 </v>
   <v>       0.08928571       0.05000000       0.37500000 </v>
   <v>       0.12500000       0.05000000       0.37500000 </v>
   <v>       0.16071429       0.05000000       0.37500000 </v>
   <v>       0.19642857       0.05000000       0.37500000 </v>
   <v>       0.23214286       0.05000000       0.37500000 </v>
   <v>       0.26785714       0.05000000       0.37500000 </v>
   <v>       0.30357143       0.05000000       0.37500000 </v>
   <v>       0.33928571       0.05000000       0.37500000 </v>
   <v>       0.37500000       0.05000000       0.37500000 </v>
   <v>       0.41071429       0.05000000       0.37500000 </v>
   <v>       0.44642857       0.05000000       0.37500000 </v>
   <v>       0.48214286       0.05000000       0.37500000 </v>
   <v>      -0.48214286       0.05000000       0.37500000 </v>
   <v>      -0.44642857       0.05000000       0.37500000 </v>
   <v>      -0.41071429       0.05000000       0.37500000 </v>
   <v>      -0.37500000       0.05000000       0.37500000 </v>
   <v>      -0.33928571       0.05000000       0.37500000 </v>
   <v>      -0.30357143       0.05000000       0.37500000 </v>
   <v>      -0.26785714       0.05000000       0.37500000 </v>
   <v>      -0.23214286       0.05000000       0.37500000 </v>
   <v>      -0.19642857       0.05000000       0.37500000 </v>
   <v>      -0.16071429       0.05000000       0.37500000 </v>
   <v>      -0.12500000       0.05000000       0.37500000 </v>
   <v>      -0.08928571       0.05000000       0.37500000 </v>
   <v>      -0.05357143       0.05000000       0.37500000 </v>
   <v>      -0.01785714       0.05000000       0.37500000 </v>
   <v>       0.01785714       0.15000000       0.37500000 </v>
   <v>       0.05357143       0.15000000       0.37500000 </v>
   <v>       0.08928571       0.15000000       0.37500000 </v>
   <v>       0.12500000       0.15000000       0.37500000 </v>
   <v>       0.16071429       0.15000000       0.37500000 </v>
   <v>       0.19642857       0.15000000       0.37500000 </v>
   <v>       0.23214286       0.15000000       0.37500000 </v>
   <v>       0.26785714       0.15000000       0.37500000 </v>
   <v>       0.30357143       0.15000000       0.37500000 </v>
   <v>       0.33928571       0.15000000       0.37500000 </v>
   <v>       0.37500000       0.15000000       0.37500000 </v>
   <v>       0.41071429       0.15000000       0.37500000 </v>
   <v>       0.44642857       0.15000000       0.37500000 </v>
   <v>       0.48214286       0.15000000       0.37500000 </v>
   <v>      -0.48214286       0.15000000       0.37500000 </v>
   <v>      -0.44642857       0.15000000       0.37500000 </v>
   <v>      -0.41071429       0.15000000       0.37500000 </v>
   <v>      -0.37500000       0.15000000       0.37500000 </v>
   <v>      -0.33928571       0.15000000       0.37500000 </v>
   <v>      -0.30357143       0.15000000       0.37500000 </v>
   <v>      -0.26785714       0.15000000       0.37500000 </v>
   <v>      -0.23214286       0.15000000       0.37500000 </v>
   <v>      -0.19642857       0.15000000       0.37500000 </v>
   <v>      -0.16071429       0.15000000       0.37500000 </v>
   <v>      -0.12500000       0.15000000       0.37500000 </v>
   <v>      -0.08928571       0.15000000       0.37500000 </v>
   <v>      -0.05357143       0.15000000       0.37500000 </v>
   <v>      -0.01785714       0.15000000       0.37500000 </v>
   <v>       0.01785714       0.25000000       0.37500000 </v>
   <v>       0.05357143       0.25000000       0.37500000 </v>
   <v>       0.08928571       0.25000000       0.37500000 </v>
   <v>       0.12500000       0.25000000       0.37500000 </v>
   <v>       0.16071429       0.25000000       0.37500000 </v>
   <v>       0.19642857       0.25000000       0.37500000 </v>
   <v>       0.23214286       0.25000000       0.37500000 </v>
   <v>       0.26785714       0.25000000       0.37500000 </v>
   <v>       0.30357143       0.25000000       0.37500000 </v>
   <v>       0.33928571       0.25000000       0.37500000 </v>
   <v>       0.37500000       0.25000000       0.37500000 </v>
   <v>       0.41071429       0.25000000       0.37500000 </v>
   <v>       0.44642857       0.25000000       0.37500000 </v>
   <v>       0.48214286       0.25000000       0.37500000 </v>
   <v>      -0.48214286       0.25000000       0.37500000 </v>
   <v>      -0.44642857       0.25000000       0.37500000 </v>
   <v>      -0.41071429       0.25000000       0.37500000 </v>
   <v>      -0.37500000       0.25000000       0.37500000 </v>
   <v>      -0.33928571       0.25000000       0.37500000 </v>
   <v>      -0.30357143       0.25000000       0.37500000 </v>
   <v>      -0.26785714       0.25000000       0.37500000 </v>
   <v>      -0.23214286       0.25000000       0.37500000 </v>
   <v>      -0.19642857       0.25000000       0.37500000 </v>
   <v>      -0.16071429       0.25000000       0.37500000 </v>
   <v>      -0.12500000       0.25000000       0.37500000 </v>
   <v>      -0.08928571       0.25000000       0.37500000 </v>
   <v>      -0.05357143       0.25000000       0.37500000 </v>
   <v>      -0.01785714       0.25000000       0.37500000 </v>
   <v>       0.01785714       0.35000000       0.37500000 </v>
   <v>       0.05357143       0.35000000       0.37500000 </v>
   <v>       0.08928571       0.35000000       0.37500000 </v>
   <v>       0.12500000       0.35000000       0.37500000 </v>
   <v>       0.16071429       0.35000000       0.37500000 </v>
   <v>       0.19642857       0.35000000       0.37500000 </v>
   <v>       0.23214286       0.35000000       0.37500000 </v>
   <v>       0.26785714       0.35000000       0.37500000 </v>
   <v>       0.30357143       0.35000000       0.37500000 </v>
   <v>       0.33928571       0.35000000       0.37500000 </v>
   <v>       0.37500000       0.35000000       0.37500000 </v>
   <v>       0.41071429       0.35000000       0.37500000 </v>
   <v>       0.44642857       0.35000000       0.37500000 </v>
   <v>       0.48214286       0.35000000       0.37500000 </v>
   <v>      -0.48214286       0.35000000       0.37500000 </v>
   <v>      -0.44642857       0.35000000       0.37500000 </v>
   <v>      -0.41071429       0.35000000       0.37500000 </v>
   <v>      -0.37500000       0.35000000       0.37500000 </v>
   <v>      -0.33928571       0.35000000       0.37500000 </v>
   <v>      -0.30357143       0.35000000       0.37500000 </v>
   <v>      -0.26785714       0.35000000       0.37500000 </v>
   <v>      -0.23214286       0.35000000       0.37500000 </v>
   <v>      -0.19642857       0.35000000       0.37500000 </v>
   <v>      -0.16071429       0.35000000       0.37500000 </v>
   <v>      -0.12500000       0.35000000       0.37500000 </v>
   <v>      -0.08928571       0.35000000       0.37500000 </v>
   <v>      -0.05357143       0.35000000       0.37500000 </v>
   <v>      -0.01785714       0.35000000       0.37500000 </v>
   <v>       0.01785714       0.45000000       0.37500000 </v>
   <v>       0.05357143       0.45000000       0.37500000 </v>
   <v>       0.08928571       0.45000000       0.37500000 </v>
   <v>       0.12500000       0.45000000       0.37500000 </v>
   <v>       0.16071429       0.45000000       0.37500000 </v>
   <v>       0.19642857       0.45000000       0.37500000 </v>
   <v>       0.23214286       0.45000000       0.37500000 </v>
   <v>       0.26785714       0.45000000       0.37500000 </v>
   <v>       0.30357143       0.45000000       0.37500000 </v>
   <v>       0.33928571       0.45000000       0.37500000 </v>
   <v>       0.37500000       0.45000000       0.37500000 </v>
   <v>       0.41071429       0.45000000       0.37500000 </v>
   <v>       0.44642857       0.45000000       0.37500000 </v>
   <v>       0.48214286       0.45000000       0.37500000 </v>
   <v>      -0.48214286       0.45000000       0.37500000 </v>
   <v>      -0.44642857       0.45000000       0.37500000 </v>
   <v>      -0.41071429       0.45000000       0.37500000 </v>
   <v>      -0.37500000       0.45000000       0.37500000 </v>
   <v>      -0.33928571       0.45000000       0.37500000 </v>
   <v>      -0.30357143       0.45000000       0.37500000 </v>
   <v>      -0.26785714       0.45000000       0.37500000 </v>
   <v>      -0.23214286       0.45000000       0.37500000 </v>
   <v>      -0.19642857       0.45000000       0.37500000 </v>
   <v>      -0.16071429       0.45000000       0.37500000 </v>
   <v>      -0.12500000       0.45000000       0.37500000 </v>
   <v>      -0.08928571       0.45000000       0.37500000 </v>
   <v>      -0.05357143       0.45000000       0.37500000 </v>
   <v>      -0.01785714       0.45000000       0.37500000 </v>
   <v>       0.01785714      -0.45000000       0.37500000 </v>
   <v>       0.05357143      -0.45000000       0.37500000 </v>
   <v>       0.08928571      -0.45000000       0.37500000 </v>
   <v>       0.12500000      -0.45000000       0.37500000 </v>
   <v>       0.16071429      -0.45000000       0.37500000 </v>
   <v>       0.19642857      -0.45000000       0.37500000 </v>
   <v>       0.23214286      -0.45000000       0.37500000 </v>
   <v>       0.26785714      -0.45000000       0.37500000 </v>
   <v>       0.30357143      -0.45000000       0.37500000 </v>
   <v>       0.33928571      -0.45000000       0.37500000 </v>
   <v>       0.37500000      -0.45000000       0.37500000 </v>
   <v>       0.41071429      -0.45000000       0.37500000 </v>
   <v>       0.44642857      -0.45000000       0.37500000 </v>
   <v>       0.48214286      -0.45000000       0.37500000 </v>
   <v>      -0.48214286      -0.45000000       0.37500000 </v>
   <v>      -0.44642857      -0.45000000       0.37500000 </v>
   <v>      -0.41071429      -0.45000000       0.37500000 </v>
   <v>      -0.37500000      -0.45000000       0.37500000 </v>
   <v>      -0.33928571      -0.45000000       0.37500000 </v>
   <v>      -0.30357143      -0.45000000       0.37500000 </v>
   <v>      -0.26785714      -0.45000000       0.37500000 </v>
   <v>      -0.23214286      -0.45000000       0.37500000 </v>
   <v>      -0.19642857      -0.45000000       0.37500000 </v>
   <v>      -0.16071429      -0.45000000       0.37500000 </v>
   <v>      -0.12500000      -0.45000000       0.37500000 </v>
   <v>      -0.08928571      -0.45000000       0.37500000 </v>
   <v>      -0.05357143      -0.45000000       0.37500000 </v>
   <v>      -0.01785714      -0.45000000       0.37500000 </v>
   <v>       0.01785714      -0.35000000       0.37500000 </v>
   <v>       0.05357143      -0.35000000       0.37500000 </v>
   <v>       0.08928571      -0.35000000       0.37500000 </v>
   <v>       0.12500000      -0.35000000       0.37500000 </v>
   <v>       0.16071429      -0.35000000       0.37500000 </v>
   <v>       0.19642857      -0.35000000       0.37500000 </v>
   <v>       0.23214286      -0.35000000       0.37500000 </v>
   <v>       0.26785714      -0.35000000       0.37500000 </v>
   <v>       0.30357143      -0.35000000       0.37500000 </v>
   <v>       0.33928571      -0.35000000       0.37500000 </v>
   <v>       0.37500000      -0.35000000       0.37500000 </v>
   <v>       0.41071429      -0.35000000       0.37500000 </v>
   <v>       0.44642857      -0.35000000       0.37500000 </v>
   <v>       0.48214286      -0.35000000       0.37500000 </v>
   <v>      -0.48214286      -0.35000000       0.37500000 </v>
   <v>      -0.44642857      -0.35000000       0.37500000 </v>
   <v>      -0.41071429      -0.35000000       0.37500000 </v>
   <v>      -0.37500000      -0.35000000       0.37500000 </v>
   <v>      -0.33928571      -0.35000000       0.37500000 </v>
   <v>      -0.30357143      -0.35000000       0.37500000 </v>
   <v>      -0.26785714      -0.35000000       0.37500000 </v>
   <v>      -0.23214286      -0.35000000       0.37500000 </v>
   <v>      -0.19642857      -0.35000000       0.37500000 </v>
   <v>      -0.16071429      -0.35000000       0.37500000 </v>
   <v>      -0.12500000      -0.35000000       0.37500000 </v>
   <v>      -0.08928571      -0.35000000       0.37500000 </v>
   <v>      -0.05357143      -0.35000000       0.37500000 </v>
   <v>      -0.01785714      -0.35000000       0.37500000 </v>
   <v>       0.01785714      -0.25000000       0.37500000 </v>
   <v>       0.05357143      -0.25000000       0.37500000 </v>
   <v>       0.08928571      -0.25000000       0.37500000 </v>
   <v>       0.12500000      -0.25000000       0.37500000 </v>
   <v>       0.16071429      -0.25000000       0.37500000 </v>
   <v>       0.19642857      -0.25000000       0.37500000 </v>
   <v>       0.23214286      -0.25000000       0.37500000 </v>
   <v>       0.26785714      -0.25000000       0.37500000 </v>
   <v>       0.30357143      -0.25000000       0.37500000 </v>
   <v>       0.33928571      -0.25000000       0.37500000 </v>
   <v>       0.37500000      -0.25000000       0.37500000 </v>
   <v>       0.41071429      -0.25000000       0.37500000 </v>
   <v>       0.44642857      -0.25000000       0.37500000 </v>
   <v>       0.48214286      -0.25000000       0.37500000 </v>
   <v>      -0.48214286      -0.25000000       0.37500000 </v>
   <v>      -0.44642857      -0.25000000       0.37500000 </v>
   <v>      -0.41071429      -0.25000000       0.37500000 </v>
   <v>      -0.37500000      -0.25000000       0.37500000 </v>
   <v>      -0.33928571      -0.25000000       0.37500000 </v>
   <v>      -0.30357143      -0.25000000       0.37500000 </v>
   <v>      -0.26785714      -0.25000000       0.37500000 </v>
   <v>      -0.23214286      -0.25000000       0.37500000 </v>
   <v>      -0.19642857      -0.25000000       0.37500000 </v>
   <v>      -0.16071429      -0.25000000       0.37500000 </v>
   <v>      -0.12500000      -0.25000000       0.37500000 </v>
   <v>      -0.08928571      -0.25000000       0.37500000 </v>
   <v>      -0.05357143      -0.25000000       0.37500000 </v>
   <v>      -0.01785714      -0.25000000       0.37500000 </v>
   <v>       0.01785714      -0.15000000       0.37500000 </v>
   <v>       0.05357143      -0.15000000       0.37500000 </v>
   <v>       0.08928571      -0.15000000       0.37500000 </v>
   <v>       0.12500000      -0.15000000       0.37500000 </v>
   <v>       0.16071429      -0.15000000       0.37500000 </v>
   <v>       0.19642857      -0.15000000       0.37500000 </v>
   <v>       0.23214286      -0.15000000       0.37500000 </v>
   <v>       0.26785714      -0.15000000       0.37500000 </v>
   <v>       0.30357143      -0.15000000       0.37500000 </v>
   <v>       0.33928571      -0.15000000       0.37500000 </v>
   <v>       0.37500000      -0.15000000       0.37500000 </v>
   <v>       0.41071429      -0.15000000       0.37500000 </v>
   <v>       0.44642857      -0.15000000       0.37500000 </v>
   <v>       0.48214286      -0.15000000       0.37500000 </v>
   <v>      -0.48214286      -0.15000000       0.37500000 </v>
   <v>      -0.44642857      -0.15000000       0.37500000 </v>
   <v>      -0.41071429      -0.15000000       0.37500000 </v>
   <v>      -0.37500000      -0.15000000       0.37500000 </v>
   <v>      -0.33928571      -0.15000000       0.37500000 </v>
   <v>      -0.30357143      -0.15000000       0.37500000 </v>
   <v>      -0.26785714      -0.15000000       0.37500000 </v>
   <v>      -0.23214286      -0.15000000       0.37500000 </v>
   <v>      -0.19642857      -0.15000000       0.37500000 </v>
   <v>      -0.16071429      -0.15000000       0.37500000 </v>
   <v>      -0.12500000      -0.15000000       0.37500000 </v>
   <v>      -0.08928571      -0.15000000       0.37500000 </v>
   <v>      -0.05357143      -0.15000000       0.37500000 </v>
   <v>      -0.01785714      -0.15000000       0.37500000 </v>
   <v>       0.01785714      -0.05000000       0.37500000 </v>
   <v>       0.05357143      -0.05000000       0.37500000 </v>
   <v>       0.08928571      -0.05000000       0.37500000 </v>
   <v>       0.12500000      -0.05000000       0.37500000 </v>
   <v>       0.16071429      -0.05000000       0.37500000 </v>
   <v>       0.19642857      -0.05000000       0.37500000 </v>
   <v>       0.23214286      -0.05000000       0.37500000 </v>
   <v>       0.26785714      -0.05000000       0.37500000 </v>
   <v>       0.30357143      -0.05000000       0.37500000 </v>
   <v>       0.33928571      -0.05000000       0.37500000 </v>
   <v>       0.37500000      -0.05000000       0.37500000 </v>
   <v>       0.41071429      -0.05000000       0.37500000 </v>
   <v>       0.44642857      -0.05000000       0.37500000 </v>
   <v>       0.48214286      -0.05000000       0.37500000 </v>
   <v>      -0.48214286      -0.05000000       0.37500000 </v>
   <v>      -0.44642857      -0.05000000       0.37500000 </v>
   <v>      -0.41071429      -0.05000000       0.37500000 </v>
   <v>      -0.37500000      -0.05000000       0.37500000 </v>
   <v>      -0.33928571      -0.05000000       0.37500000 </v>
   <v>      -0.30357143      -0.05000000       0.37500000 </v>
   <v>      -0.26785714      -0.05000000       0.37500000 </v>
   <v>      -0.23214286      -0.05000000       0.37500000 </v>
   <v>      -0.19642857      -0.05000000       0.37500000 </v>
   <v>      -0.16071429      -0.05000000       0.37500000 </v>
   <v>      -0.12500000      -0.05000000       0.37500000 </v>
   <v>      -0.08928571      -0.05000000       0.37500000 </v>
   <v>      -0.05357143      -0.05000000       0.37500000 </v>
   <v>      -0.01785714      -0.05000000       0.37500000 </v>
  </varray>
  <varray name="weights" >
   <v>       0.00178571 </v>
   <v>       0.00178571 </v>
   <v>       0.00178571 </v>
   <v>       0.00178571 </v>
   <v>       0.00178571 </v>
   <v>       0.00178571 </v>
   <v>       0.00178571 </v>
   <v>       0.00178571 </v>
   <v>       0.00178571 </v>
   <v>       0.00178571 </v>
   <v>       0.00178571 </v>
   <v>       0.00178571 </v>
   <v>       0.00178571 </v>
   <v>       0.00178571 </v>
   <v>       0.00178571 </v>
   <v>       0.00178571 </v>
   <v>       0.00178571 </v>
   <v>       0.00178571 </v>
   <v>       0.00178571 </v>
   <v>       0.00178571 </v>
   <v>       0.00178571 </v>
   <v>       0.00178571 </v>
   <v>       0.00178571 </v>
   <v>       0.00178571 </v>
   <v>       0.00178571 </v>
   <v>       0.00178571 </v>
   <v>       0.00178571 </v>
   <v>       0.00178571 </v>
   <v>       0.00178571 </v>
   <v>       0.00178571 </v>
   <v>       0.00178571 </v>
   <v>       0.00178571 </v>
   <v>       0.00178571 </v>
   <v>       0.00178571 </v>
   <v>       0.00178571 </v>
   <v>       0.00178571 </v>
   <v>       0.00178571 </v>
   <v>       0.00178571 </v>
   <v>       0.00178571 </v>
   <v>       0.00178571 </v>
   <v>       0.00178571 </v>
   <v>       0.00178571 </v>
   <v>       0.00178571 </v>
   <v>       0.00178571 </v>
   <v>       0.00178571 </v>
   <v>       0.00178571 </v>
   <v>       0.00178571 </v>
   <v>       0.00178571 </v>
   <v>       0.00178571 </v>
   <v>       0.00178571 </v>
   <v>       0.00178571 </v>
   <v>       0.00178571 </v>
   <v>       0.00178571 </v>
   <v>       0.00178571 </v>
   <v>       0.00178571 </v>
   <v>       0.00178571 </v>
   <v>       0.00178571 </v>
   <v>       0.00178571 </v>
   <v>       0.00178571 </v>
   <v>       0.00178571 </v>
   <v>       0.00178571 </v>
   <v>       0.00178571 </v>
   <v>       0.00178571 </v>
   <v>       0.00178571 </v>
   <v>       0.00178571 </v>
   <v>       0.00178571 </v>
   <v>       0.00178571 </v>
   <v>       0.00178571 </v>
   <v>       0.00178571 </v>
   <v>       0.00178571 </v>
   <v>       0.00178571 </v>
   <v>       0.00178571 </v>
   <v>       0.00178571 </v>
   <v>       0.00178571 </v>
   <v>       0.00178571 </v>
   <v>       0.00178571 </v>
   <v>       0.00178571 </v>
   <v>       0.00178571 </v>
   <v>       0.00178571 </v>
   <v>       0.00178571 </v>
   <v>       0.00178571 </v>
   <v>       0.00178571 </v>
   <v>       0.00178571 </v>
   <v>       0.00178571 </v>
   <v>       0.00178571 </v>
   <v>       0.00178571 </v>
   <v>       0.00178571 </v>
   <v>       0.00178571 </v>
   <v>       0.00178571 </v>
   <v>       0.00178571 </v>
   <v>       0.00178571 </v>
   <v>       0.00178571 </v>
   <v>       0.00178571 </v>
   <v>       0.00178571 </v>
   <v>       0.00178571 </v>
   <v>       0.00178571 </v>
   <v>       0.00178571 </v>
   <v>       0.00178571 </v>
   <v>       0.00178571 </v>
   <v>       0.00178571 </v>
   <v>       0.00178571 </v>
   <v>       0.00178571 </v>
   <v>       0.00178571 </v>
   <v>       0.00178571 </v>
   <v>       0.00178571 </v>
   <v>       0.00178571 </v>
   <v>       0.00178571 </v>
   <v>       0.00178571 </v>
   <v>       0.00178571 </v>
   <v>       0.00178571 </v>
   <v>       0.00178571 </v>
   <v>       0.00178571 </v>
   <v>       0.00178571 </v>
   <v>       0.00178571 </v>
   <v>       0.00178571 </v>
   <v>       0.00178571 </v>
   <v>       0.00178571 </v>
   <v>       0.00178571 </v>
   <v>       0.00178571 </v>
   <v>       0.00178571 </v>
   <v>       0.00178571 </v>
   <v>       0.00178571 </v>
   <v>       0.00178571 </v>
   <v>       0.00178571 </v>
   <v>       0.00178571 </v>
   <v>       0.00178571 </v>
   <v>       0.00178571 </v>
   <v>       0.00178571 </v>
   <v>       0.00178571 </v>
   <v>       0.00178571 </v>
   <v>       0.00178571 </v>
   <v>       0.00178571 </v>
   <v>       0.00178571 </v>
   <v>       0.00178571 </v>
   <v>       0.00178571 </v>
   <v>       0.00178571 </v>
   <v>       0.00178571 </v>
   <v>       0.00178571 </v>
   <v>       0.00178571 </v>
   <v>       0.00178571 </v>
   <v>       0.00178571 </v>
   <v>       0.00178571 </v>
   <v>       0.00178571 </v>
   <v>       0.00178571 </v>
   <v>       0.00178571 </v>
   <v>       0.00178571 </v>
   <v>       0.00178571 </v>
   <v>       0.00178571 </v>
   <v>       0.00178571 </v>
   <v>       0.00178571 </v>
   <v>       0.00178571 </v>
   <v>       0.00178571 </v>
   <v>       0.00178571 </v>
   <v>       0.00178571 </v>
   <v>       0.00178571 </v>
   <v>       0.00178571 </v>
   <v>       0.00178571 </v>
   <v>       0.00178571 </v>
   <v>       0.00178571 </v>
   <v>       0.00178571 </v>
   <v>       0.00178571 </v>
   <v>       0.00178571 </v>
   <v>       0.00178571 </v>
   <v>       0.00178571 </v>
   <v>       0.00178571 </v>
   <v>       0.00178571 </v>
   <v>       0.00178571 </v>
   <v>       0.00178571 </v>
   <v>       0.00178571 </v>
   <v>       0.00178571 </v>
   <v>       0.00178571 </v>
   <v>       0.00178571 </v>
   <v>       0.00178571 </v>
   <v>       0.00178571 </v>
   <v>       0.00178571 </v>
   <v>       0.00178571 </v>
   <v>       0.00178571 </v>
   <v>       0.00178571 </v>
   <v>       0.00178571 </v>
   <v>       0.00178571 </v>
   <v>       0.00178571 </v>
   <v>       0.00178571 </v>
   <v>       0.00178571 </v>
   <v>       0.00178571 </v>
   <v>       0.00178571 </v>
   <v>       0.00178571 </v>
   <v>       0.00178571 </v>
   <v>       0.00178571 </v>
   <v>       0.00178571 </v>
   <v>       0.00178571 </v>
   <v>       0.00178571 </v>
   <v>       0.00178571 </v>
   <v>       0.00178571 </v>
   <v>       0.00178571 </v>
   <v>       0.00178571 </v>
   <v>       0.00178571 </v>
   <v>       0.00178571 </v>
   <v>       0.00178571 </v>
   <v>       0.00178571 </v>
   <v>       0.00178571 </v>
   <v>       0.00178571 </v>
   <v>       0.00178571 </v>
   <v>       0.00178571 </v>
   <v>       0.00178571 </v>
   <v>       0.00178571 </v>
   <v>       0.00178571 </v>
   <v>       0.00178571 </v>
   <v>       0.00178571 </v>
   <v>       0.00178571 </v>
   <v>       0.00178571 </v>
   <v>       0.00178571 </v>
   <v>       0.00178571 </v>
   <v>       0.00178571 </v>
   <v>       0.00178571 </v>
   <v>       0.00178571 </v>
   <v>       0.00178571 </v>
   <v>       0.00178571 </v>
   <v>       0.00178571 </v>
   <v>       0.00178571 </v>
   <v>       0.00178571 </v>
   <v>       0.00178571 </v>
   <v>       0.00178571 </v>
   <v>       0.00178571 </v>
   <v>       0.00178571 </v>
   <v>       0.00178571 </v>
   <v>       0.00178571 </v>
   <v>       0.00178571 </v>
   <v>       0.00178571 </v>
   <v>       0.00178571 </v>
   <v>       0.00178571 </v>
   <v>       0.00178571 </v>
   <v>       0.00178571 </v>
   <v>       0.00178571 </v>
   <v>       0.00178571 </v>
   <v>       0.00178571 </v>
   <v>       0.00178571 </v>
   <v>       0.00178571 </v>
   <v>       0.00178571 </v>
   <v>       0.00178571 </v>
   <v>       0.00178571 </v>
   <v>       0.00178571 </v>
   <v>       0.00178571 </v>
   <v>       0.00178571 </v>
   <v>       0.00178571 </v>
   <v>       0.00178571 </v>
   <v>       0.00178571 </v>
   <v>       0.00178571 </v>
   <v>       0.00178571 </v>
   <v>       0.00178571 </v>
   <v>       0.00178571 </v>
   <v>       0.00178571 </v>
   <v>       0.00178571 </v>
   <v>       0.00178571 </v>
   <v>       0.00178571 </v>
   <v>       0.00178571 </v>
   <v>       0.00178571 </v>
   <v>       0.00178571 </v>
   <v>       0.00178571 </v>
   <v>       0.00178571 </v>
   <v>       0.00178571 </v>
   <v>       0.00178571 </v>
   <v>       0.00178571 </v>
   <v>       0.00178571 </v>
   <v>       0.00178571 </v>
   <v>       0.00178571 </v>
   <v>       0.00178571 </v>
   <v>       0.00178571 </v>
   <v>       0.00178571 </v>
   <v>       0.00178571 </v>
   <v>       0.00178571 </v>
   <v>       0.00178571 </v>
   <v>       0.00178571 </v>
   <v>       0.00178571 </v>
   <v>       0.00178571 </v>
   <v>       0.00178571 </v>
   <v>       0.00178571 </v>
   <v>       0.00178571 </v>
   <v>       0.00178571 </v>
   <v>       0.00178571 </v>
   <v>       0.00178571 </v>
   <v>       0.00178571 </v>
   <v>       0.00178571 </v>
   <v>       0.00178571 </v>
   <v>       0.00178571 </v>
   <v>       0.00178571 </v>
   <v>       0.00178571 </v>
   <v>       0.00178571 </v>
   <v>       0.00178571 </v>
   <v>       0.00178571 </v>
   <v>       0.00178571 </v>
   <v>       0.00178571 </v>
   <v>       0.00178571 </v>
   <v>       0.00178571 </v>
   <v>       0.00178571 </v>
   <v>       0.00178571 </v>
   <v>       0.00178571 </v>
   <v>       0.00178571 </v>
   <v>       0.00178571 </v>
   <v>       0.00178571 </v>
   <v>       0.00178571 </v>
   <v>       0.00178571 </v>
   <v>       0.00178571 </v>
   <v>       0.00178571 </v>
   <v>       0.00178571 </v>
   <v>       0.00178571 </v>
   <v>       0.00178571 </v>
   <v>       0.00178571 </v>
   <v>       0.00178571 </v>
   <v>       0.00178571 </v>
   <v>       0.00178571 </v>
   <v>       0.00178571 </v>
   <v>       0.00178571 </v>
   <v>       0.00178571 </v>
   <v>       0.00178571 </v>
   <v>       0.00178571 </v>
   <v>       0.00178571 </v>
   <v>       0.00178571 </v>
   <v>       0.00178571 </v>
   <v>       0.00178571 </v>
   <v>       0.00178571 </v>
   <v>       0.00178571 </v>
   <v>       0.00178571 </v>
   <v>       0.00178571 </v>
   <v>       0.00178571 </v>
   <v>       0.00178571 </v>
   <v>       0.00178571 </v>
   <v>       0.00178571 </v>
   <v>       0.00178571 </v>
   <v>       0.00178571 </v>
   <v>       0.00178571 </v>
   <v>       0.00178571 </v>
   <v>       0.00178571 </v>
   <v>       0.00178571 </v>
   <v>       0.00178571 </v>
   <v>       0.00178571 </v>
   <v>       0.00178571 </v>
   <v>       0.00178571 </v>
   <v>       0.00178571 </v>
   <v>       0.00178571 </v>
   <v>       0.00178571 </v>
   <v>       0.00178571 </v>
   <v>       0.00178571 </v>
   <v>       0.00178571 </v>
   <v>       0.00178571 </v>
   <v>       0.00178571 </v>
   <v>       0.00178571 </v>
   <v>       0.00178571 </v>
   <v>       0.00178571 </v>
   <v>       0.00178571 </v>
   <v>       0.00178571 </v>
   <v>       0.00178571 </v>
   <v>       0.00178571 </v>
   <v>       0.00178571 </v>
   <v>       0.00178571 </v>
   <v>       0.00178571 </v>
   <v>       0.00178571 </v>
   <v>       0.00178571 </v>
   <v>       0.00178571 </v>
   <v>       0.00178571 </v>
   <v>       0.00178571 </v>
   <v>       0.00178571 </v>
   <v>       0.00178571 </v>
   <v>       0.00178571 </v>
   <v>       0.00178571 </v>
   <v>       0.00178571 </v>
   <v>       0.00178571 </v>
   <v>       0.00178571 </v>
   <v>       0.00178571 </v>
   <v>       0.00178571 </v>
   <v>       0.00178571 </v>
   <v>       0.00178571 </v>
   <v>       0.00178571 </v>
   <v>       0.00178571 </v>
   <v>       0.00178571 </v>
   <v>       0.00178571 </v>
   <v>       0.00178571 </v>
   <v>       0.00178571 </v>
   <v>       0.00178571 </v>
   <v>       0.00178571 </v>
   <v>       0.00178571 </v>
   <v>       0.00178571 </v>
   <v>       0.00178571 </v>
   <v>       0.00178571 </v>
   <v>       0.00178571 </v>
   <v>       0.00178571 </v>
   <v>       0.00178571 </v>
   <v>       0.00178571 </v>
   <v>       0.00178571 </v>
   <v>       0.00178571 </v>
   <v>       0.00178571 </v>
   <v>       0.00178571 </v>
   <v>       0.00178571 </v>
   <v>       0.00178571 </v>
   <v>       0.00178571 </v>
   <v>       0.00178571 </v>
   <v>       0.00178571 </v>
   <v>       0.00178571 </v>
   <v>       0.00178571 </v>
   <v>       0.00178571 </v>
   <v>       0.00178571 </v>
   <v>       0.00178571 </v>
   <v>       0.00178571 </v>
   <v>       0.00178571 </v>
   <v>       0.00178571 </v>
   <v>       0.00178571 </v>
   <v>       0.00178571 </v>
   <v>       0.00178571 </v>
   <v>       0.00178571 </v>
   <v>       0.00178571 </v>
   <v>       0.00178571 </v>
   <v>       0.00178571 </v>
   <v>       0.00178571 </v>
   <v>       0.00178571 </v>
   <v>       0.00178571 </v>
   <v>       0.00178571 </v>
   <v>       0.00178571 </v>
   <v>       0.00178571 </v>
   <v>       0.00178571 </v>
   <v>       0.00178571 </v>
   <v>       0.00178571 </v>
   <v>       0.00178571 </v>
   <v>       0.00178571 </v>
   <v>       0.00178571 </v>
   <v>       0.00178571 </v>
   <v>       0.00178571 </v>
   <v>       0.00178571 </v>
   <v>       0.00178571 </v>
   <v>       0.00178571 </v>
   <v>       0.00178571 </v>
   <v>       0.00178571 </v>
   <v>       0.00178571 </v>
   <v>       0.00178571 </v>
   <v>       0.00178571 </v>
   <v>       0.00178571 </v>
   <v>       0.00178571 </v>
   <v>       0.00178571 </v>
   <v>       0.00178571 </v>
   <v>       0.00178571 </v>
   <v>       0.00178571 </v>
   <v>       0.00178571 </v>
   <v>       0.00178571 </v>
   <v>       0.00178571 </v>
   <v>       0.00178571 </v>
   <v>       0.00178571 </v>
   <v>       0.00178571 </v>
   <v>       0.00178571 </v>
   <v>       0.00178571 </v>
   <v>       0.00178571 </v>
   <v>       0.00178571 </v>
   <v>       0.00178571 </v>
   <v>       0.00178571 </v>
   <v>       0.00178571 </v>
   <v>       0.00178571 </v>
   <v>       0.00178571 </v>
   <v>       0.00178571 </v>
   <v>       0.00178571 </v>
   <v>       0.00178571 </v>
   <v>       0.00178571 </v>
   <v>       0.00178571 </v>
   <v>       0.00178571 </v>
   <v>       0.00178571 </v>
   <v>       0.00178571 </v>
   <v>       0.00178571 </v>
   <v>       0.00178571 </v>
   <v>       0.00178571 </v>
   <v>       0.00178571 </v>
   <v>       0.00178571 </v>
   <v>       0.00178571 </v>
   <v>       0.00178571 </v>
   <v>       0.00178571 </v>
   <v>       0.00178571 </v>
   <v>       0.00178571 </v>
   <v>       0.00178571 </v>
   <v>       0.00178571 </v>
   <v>       0.00178571 </v>
   <v>       0.00178571 </v>
   <v>       0.00178571 </v>
   <v>       0.00178571 </v>
   <v>       0.00178571 </v>
   <v>       0.00178571 </v>
   <v>       0.00178571 </v>
   <v>       0.00178571 </v>
   <v>       0.00178571 </v>
   <v>       0.00178571 </v>
   <v>       0.00178571 </v>
   <v>       0.00178571 </v>
   <v>       0.00178571 </v>
   <v>       0.00178571 </v>
   <v>       0.00178571 </v>
   <v>       0.00178571 </v>
   <v>       0.00178571 </v>
   <v>       0.00178571 </v>
   <v>       0.00178571 </v>
   <v>       0.00178571 </v>
   <v>       0.00178571 </v>
   <v>       0.00178571 </v>
   <v>       0.00178571 </v>
   <v>       0.00178571 </v>
   <v>       0.00178571 </v>
   <v>       0.00178571 </v>
   <v>       0.00178571 </v>
   <v>       0.00178571 </v>
   <v>       0.00178571 </v>
   <v>       0.00178571 </v>
   <v>       0.00178571 </v>
   <v>       0.00178571 </v>
   <v>       0.00178571 </v>
   <v>       0.00178571 </v>
   <v>       0.00178571 </v>
   <v>       0.00178571 </v>
   <v>       0.00178571 </v>
   <v>       0.00178571 </v>
   <v>       0.00178571 </v>
   <v>       0.00178571 </v>
   <v>       0.00178571 </v>
   <v>       0.00178571 </v>
   <v>       0.00178571 </v>
   <v>       0.00178571 </v>
   <v>       0.00178571 </v>
   <v>       0.00178571 </v>
   <v>       0.00178571 </v>
   <v>       0.00178571 </v>
   <v>       0.00178571 </v>
   <v>       0.00178571 </v>
   <v>       0.00178571 </v>
   <v>       0.00178571 </v>
   <v>       0.00178571 </v>
   <v>       0.00178571 </v>
   <v>       0.00178571 </v>
   <v>       0.00178571 </v>
   <v>       0.00178571 </v>
   <v>       0.00178571 </v>
   <v>       0.00178571 </v>
   <v>       0.00178571 </v>
   <v>       0.00178571 </v>
   <v>       0.00178571 </v>
   <v>       0.00178571 </v>
   <v>       0.00178571 </v>
   <v>       0.00178571 </v>
   <v>       0.00178571 </v>
   <v>       0.00178571 </v>
   <v>       0.00178571 </v>
   <v>       0.00178571 </v>
   <v>       0.00178571 </v>
   <v>       0.00178571 </v>
   <v>       0.00178571 </v>
   <v>       0.00178571 </v>
   <v>       0.00178571 </v>
   <v>       0.00178571 </v>
   <v>       0.00178571 </v>
   <v>       0.00178571 </v>
   <v>       0.00178571 </v>
   <v>       0.00178571 </v>
   <v>       0.00178571 </v>
   <v>       0.00178571 </v>
   <v>       0.00178571 </v>
   <v>       0.00178571 </v>
   <v>       0.00178571 </v>
   <v>       0.00178571 </v>
   <v>       0.00178571 </v>
  </varray>
 </kpoints>
 <parameters>
  <separator name="general" >
   <i type="string" name="SYSTEM">Al fcc relaxation</i>
   <i type="logical" name="LCOMPAT"> F  </i>
  </separator>
  <separator name="electronic" >
   <i type="string" name="PREC">accura</i>
   <i name="ENMAX">    400.00000000</i>
   <i name="ENAUG">    291.05200000</i>
   <i name="EDIFF">      0.00000100</i>
   <i type="int" name="IALGO">    68</i>
   <i type="int" name="IWAVPR">    10</i>
   <i type="int" name="NBANDS">    64</i>
   <i name="NELECT">     48.00000000</i>
   <i type="int" name="TURBO">     0</i>
   <i type="int" name="IRESTART">     0</i>
   <i type="int" name="NREBOOT">     0</i>
   <i type="int" name="NMIN">     0</i>
   <i name="EREF">      0.00000000</i>
   <separator name="electronic smearing" >
    <i type="int" name="ISMEAR">     1</i>
    <i name="SIGMA">      0.20000000</i>
    <i name="KSPACING">      0.08000000</i>
    <i type="logical" name="KGAMMA"> T  </i>
   </separator>
   <separator name="electronic projectors" >
    <i type="logical" name="LREAL"> T  </i>
    <v name="ROPT">     -0.00025000</v>
    <i type="int" name="LMAXPAW">  -100</i>
    <i type="int" name="LMAXMIX">     2</i>
    <i type="logical" name="NLSPLINE"> F  </i>
   </separator>
   <separator name="electronic startup" >
    <i type="int" name="ISTART">     0</i>
    <i type="int" name="ICHARG">     2</i>
    <i type="int" name="INIWAV">     1</i>
   </separator>
   <separator name="electronic spin" >
    <i type="int" name="ISPIN">     1</i>
    <i type="logical" name="LNONCOLLINEAR"> F  </i>
    <v name="MAGMOM">      1.00000000      1.00000000      1.00000000      1.00000000      1.00000000      1.00000000      1.00000000      1.00000000      1.00000000      1.00000000      1.00000000      1.00000000      1.00000000      1.00000000      1.00000000      1.00000000</v>
    <i name="NUPDOWN">     -1.00000000</i>
    <i type="logical" name="LSORBIT"> F  </i>
    <v name="SAXIS">      0.00000000      0.00000000      1.00000000</v>
    <i type="logical" name="LSPIRAL"> F  </i>
    <v name="QSPIRAL">      0.00000000      0.00000000      0.00000000</v>
    <i type="logical" name="LZEROZ"> F  </i>
   </separator>
   <separator name="electronic exchange-correlation" >
    <i type="logical" name="LASPH"> F  </i>
    <i type="logical" name="LMETAGGA"> F  </i>
   </separator>
   <separator name="electronic convergence" >
    <i type="int" name="NELM">    60</i>
    <i type="int" name="NELMDL">    -5</i>
    <i type="int" name="NELMIN">     4</i>
    <i name="ENINI">    400.00000000</i>
    <separator name="electronic convergence detail" >
     <i type="logical" name="LDIAG"> T  </i>
     <i type="logical" name="LSUBROT"> F  </i>
     <i name="WEIMIN">      0.00000000</i>
     <i name="EBREAK">      0.00000000</i>
     <i name="DEPER">      0.30000000</i>
     <i type="int" name="NRMM">     4</i>
     <i name="TIME">      0.40000000</i>
    </separator>
   </separator>
   <separator name="electronic mixer" >
    <i name="AMIX">      0.40000000</i>
    <i name="BMIX">      1.00000000</i>
    <i name="AMIN">      0.10000000</i>
    <i name="AMIX_MAG">      1.60000000</i>
    <i name="BMIX_MAG">      1.00000000</i>
    <separator name="electronic mixer details" >
     <i type="int" name="IMIX">     4</i>
     <i type="logical" name="MIXFIRST"> F  </i>
     <i type="int" name="MAXMIX">   -45</i>
     <i name="WC">    100.00000000</i>
     <i type="int" name="INIMIX">     1</i>
     <i type="int" name="MIXPRE">     1</i>
     <i type="int" name="MREMOVE">     5</i>
    </separator>
   </separator>
   <separator name="electronic dipolcorrection" >
    <i type="logical" name="LDIPOL"> F  </i>
    <i type="logical" name="LMONO"> F  </i>
    <i type="int" name="IDIPOL">     0</i>
    <i name="EPSILON">      1.00000000</i>
    <v name="DIPOL">   -100.00000000   -100.00000000   -100.00000000</v>
    <i name="EFIELD">      0.00000000</i>
   </separator>
  </separator>
  <separator name="grids" >
   <i type="int" name="NGX">    20</i>
   <i type="int" name="NGY">    56</i>
   <i type="int" name="NGZ">   160</i>
   <i type="int" name="NGXF">    40</i>
   <i type="int" name="NGYF">   112</i>
   <i type="int" name="NGZF">   320</i>
   <i type="logical" name="ADDGRID"> F  </i>
  </separator>
  <separator name="ionic" >
   <i type="int" name="NSW">     0</i>
   <i type="int" name="IBRION">    -1</i>
   <i type="int" name="MDALGO">     0</i>
   <i type="int" name="ISIF">     3</i>
   <i name="PSTRESS">      0.00000000</i>
   <i name="EDIFFG">      0.00001000</i>
   <i type="int" name="NFREE">     1</i>
   <i name="POTIM">      0.50000000</i>
   <i name="SMASS">     -3.00000000</i>
   <i name="SCALEE">      1.00000000</i>
  </separator>
  <separator name="ionic md" >
   <i name="TEBEG">      0.00010000</i>
   <i name="TEEND">      0.00010000</i>
   <i type="int" name="NBLOCK">     1</i>
   <i type="int" name="KBLOCK">     1</i>
   <i type="int" name="NPACO">   256</i>
   <i name="APACO">     16.00000000</i>
  </separator>
  <separator name="symmetry" >
   <i type="int" name="ISYM">     2</i>
   <i name="SYMPREC">      0.00001000</i>
  </separator>
  <separator name="dos" >
   <i type="int" name="LORBIT">     0</i>
   <v name="RWIGS">     -1.00000000</v>
   <i type="int" name="NEDOS">   301</i>
   <i name="EMIN">     10.00000000</i>
   <i name="EMAX">    -10.00000000</i>
   <i name="EFERMI">      0.00000000</i>
  </separator>
  <separator name="writing" >
   <i type="int" name="NWRITE">     2</i>
   <i type="logical" name="LWAVE"> F  </i>
   <i type="logical" name="LDOWNSAMPLE"> F  </i>
   <i type="logical" name="LCHARG"> F  </i>
   <i type="logical" name="LPARD"> F  </i>
   <i type="logical" name="LVTOT"> F  </i>
   <i type="logical" name="LVHAR"> F  </i>
   <i type="logical" name="LELF"> F  </i>
   <i type="logical" name="LOPTICS"> F  </i>
   <v name="STM">      0.00000000      0.00000000      0.00000000      0.00000000      0.00000000      0.00000000      0.00000000</v>
  </separator>
  <separator name="performance" >
   <i type="int" name="NPAR">    32</i>
   <i type="int" name="NSIM">     4</i>
   <i type="int" name="NBLK">    -1</i>
   <i type="logical" name="LPLANE"> T  </i>
   <i type="logical" name="LSCALAPACK"> T  </i>
   <i type="logical" name="LSCAAWARE"> F  </i>
   <i type="logical" name="LSCALU"> F  </i>
   <i type="logical" name="LASYNC"> F  </i>
   <i type="logical" name="LORBITALREAL"> F  </i>
  </separator>
  <separator name="miscellaneous" >
   <i type="int" name="IDIOT">     3</i>
   <i type="int" name="ISPECIAL">     0</i>
   <i type="logical" name="LMUSIC"> F  </i>
   <v name="POMASS">     26.98100000</v>
   <v name="DARWINR">      0.00000000</v>
   <v name="DARWINV">      1.00000000</v>
   <i type="logical" name="LCORR"> T  </i>
  </separator>
  <i type="logical" name="GGA_COMPAT"> T  </i>
  <i type="logical" name="LBERRY"> F  </i>
  <i type="int" name="ICORELEVEL">     0</i>
  <i type="logical" name="LDAU"> F  </i>
  <i type="int" name="I_CONSTRAINED_M">     0</i>
  <separator name="electronic exchange-correlation" >
   <i type="string" name="GGA">--</i>
   <i type="int" name="VOSKOWN">     0</i>
   <i type="logical" name="LHFCALC"> F  </i>
   <i type="string" name="PRECFOCK"></i>
   <i type="logical" name="LSYMGRAD"> F  </i>
   <i type="logical" name="LHFONE"> F  </i>
   <i type="logical" name="LRHFCALC"> F  </i>
   <i type="logical" name="LTHOMAS"> F  </i>
   <i type="logical" name="LMODELHF"> F  </i>
   <i name="ENCUT4O">     -1.00000000</i>
   <i type="int" name="EXXOEP">     0</i>
   <i type="int" name="FOURORBIT">     0</i>
   <i name="AEXX">      0.00000000</i>
   <i name="HFALPHA">      0.00000000</i>
   <i name="MCALPHA">      0.00000000</i>
   <i name="ALDAX">      1.00000000</i>
   <i name="AGGAX">      1.00000000</i>
   <i name="ALDAC">      1.00000000</i>
   <i name="AGGAC">      1.00000000</i>
   <i type="int" name="NKREDX">     1</i>
   <i type="int" name="NKREDY">     1</i>
   <i type="int" name="NKREDZ">     1</i>
   <i type="logical" name="SHIFTRED"> F  </i>
   <i type="logical" name="ODDONLY"> F  </i>
   <i type="logical" name="EVENONLY"> F  </i>
   <i type="int" name="LMAXFOCK">     0</i>
   <i type="int" name="NMAXFOCKAE">     0</i>
   <i type="logical" name="LFOCKAEDFT"> F  </i>
   <i name="HFSCREEN">      0.00000000</i>
   <i name="HFSCREENC">      0.00000000</i>
   <i type="int" name="NBANDSGWLOW">     0</i>
  </separator>
  <separator name="vdW DFT" >
   <i type="logical" name="LUSE_VDW"> F  </i>
   <i name="Zab_VDW">     -0.84910000</i>
   <i name="PARAM1">      0.12340000</i>
   <i name="PARAM2">      1.00000000</i>
   <i name="PARAM3">      0.00000000</i>
  </separator>
  <separator name="model GW" >
   <i type="int" name="MODEL_GW">     0</i>
   <i name="MODEL_EPS0">     22.23681880</i>
   <i name="MODEL_ALPHA">      1.00000000</i>
  </separator>
  <separator name="linear response parameters" >
   <i type="logical" name="LEPSILON"> F  </i>
   <i type="logical" name="LRPA"> F  </i>
   <i type="logical" name="LNABLA"> F  </i>
   <i type="logical" name="LVEL"> F  </i>
   <i type="int" name="KINTER">     0</i>
   <i name="CSHIFT">      0.10000000</i>
   <i name="OMEGAMAX">     -1.00000000</i>
   <i name="DEG_THRESHOLD">      0.00200000</i>
   <i name="RTIME">     -0.10000000</i>
   <i name="WPLASMAI">      0.00000000</i>
   <v name="DFIELD">      0.00000000      0.00000000      0.00000000</v>
   <v name="WPLASMA">      0.00000000      0.00000000      0.00000000      0.00000000      0.00000000      0.00000000      0.00000000      0.00000000      0.00000000</v>
  </separator>
  <separator name="orbital magnetization" >
   <i type="logical" name="NUCIND"> F  </i>
   <v name="MAGPOS">      0.00000000      0.00000000      0.00000000</v>
   <i type="logical" name="LNICSALL"> T  </i>
   <i type="logical" name="ORBITALMAG"> F  </i>
   <i type="logical" name="LMAGBLOCH"> F  </i>
   <i type="logical" name="LCHIMAG"> F  </i>
   <i type="logical" name="LGAUGE"> T  </i>
   <i type="int" name="MAGATOM">     0</i>
   <v name="MAGDIPOL">      0.00000000      0.00000000      0.00000000</v>
   <v name="AVECCONST">      0.00000000      0.00000000      0.00000000</v>
  </separator>
  <separator name="response functions" >
   <i type="logical" name="LADDER"> F  </i>
   <i type="logical" name="LRPAFORCE"> F  </i>
   <i type="logical" name="LFXC"> F  </i>
   <i type="logical" name="LHARTREE"> T  </i>
   <i type="int" name="IBSE">     0</i>
   <v type="int" name="KPOINT">    -1     0     0     0</v>
   <i type="logical" name="LTCTE"> F  </i>
   <i type="logical" name="LTETE"> F  </i>
   <i type="logical" name="LTRIPLET"> F  </i>
   <i type="logical" name="LFXCEPS"> F  </i>
   <i type="logical" name="LFXHEG"> F  </i>
   <i type="int" name="NATURALO">     2</i>
   <i type="logical" name="L2ORDER"> F  </i>
   <i type="logical" name="LMP2LT"> F  </i>
   <i type="logical" name="LUSEW"> F  </i>
   <i name="ENCUTGW">     -2.00000000</i>
   <i name="ENCUTGWSOFT">     -2.00000000</i>
   <i name="ENCUTLF">     -1.00000000</i>
   <i type="int" name="LMAXMP2">    -1</i>
   <i name="SCISSOR">      0.00000000</i>
   <i type="int" name="NOMEGA">     0</i>
   <i type="int" name="NOMEGAR">     0</i>
   <i type="int" name="NBANDSGW">    -1</i>
   <i type="int" name="NBANDSO">    -1</i>
   <i type="int" name="NBANDSV">    -1</i>
   <i type="int" name="NELM">    60</i>
   <i type="int" name="NELMHF">     1</i>
   <i type="int" name="DIM">     3</i>
   <i type="int" name="ANTIRES">     0</i>
   <i name="OMEGAMAX">    -30.00000000</i>
   <i name="OMEGAMIN">    -30.00000000</i>
   <i name="OMEGATL">   -200.00000000</i>
   <i type="int" name="OMEGAGRID">   140</i>
   <i name="CSHIFT">     -0.10000000</i>
   <i type="logical" name="SELFENERGY"> F  </i>
   <i type="logical" name="LSPECTRAL"> F  </i>
   <i type="logical" name="LSPECTRALGW"> F  </i>
   <i type="logical" name="LSINGLES"> F  </i>
   <i type="logical" name="LFERMIGW"> F  </i>
   <i type="logical" name="ODDONLYGW"> F  </i>
   <i type="logical" name="EVENONLYGW"> F  </i>
   <i type="int" name="NKREDLFX">     1</i>
   <i type="int" name="NKREDLFY">     1</i>
   <i type="int" name="NKREDLFZ">     1</i>
   <i type="int" name="MAXMEM">  2800</i>
   <i type="int" name="TELESCOPE">     0</i>
   <i type="int" name="TAUPAR">     1</i>
   <i type="int" name="OMEGAPAR">    -1</i>
   <i name="LAMBDA">      1.00000000</i>
  </separator>
  <separator name="External order field" >
   <i name="OFIELD_KAPPA">      0.00000000</i>
   <v name="OFIELD_K">      0.00000000      0.00000000      0.00000000</v>
   <i name="OFIELD_Q6_NEAR">      0.00000000</i>
   <i name="OFIELD_Q6_FAR">      0.00000000</i>
   <i name="OFIELD_A">      0.00000000</i>
  </separator>
 </parameters>
 <atominfo>
  <atoms>      16 </atoms>
  <types>       1 </types>
  <array name="atoms" >
   <dimension dim="1">ion</dimension>
   <field type="string">element</field>
   <field type="int">atomtype</field>
   <set>
    <rc><c>Al</c><c>   1</c></rc>
    <rc><c>Al</c><c>   1</c></rc>
    <rc><c>Al</c><c>   1</c></rc>
    <rc><c>Al</c><c>   1</c></rc>
    <rc><c>Al</c><c>   1</c></rc>
    <rc><c>Al</c><c>   1</c></rc>
    <rc><c>Al</c><c>   1</c></rc>
    <rc><c>Al</c><c>   1</c></rc>
    <rc><c>Al</c><c>   1</c></rc>
    <rc><c>Al</c><c>   1</c></rc>
    <rc><c>Al</c><c>   1</c></rc>
    <rc><c>Al</c><c>   1</c></rc>
    <rc><c>Al</c><c>   1</c></rc>
    <rc><c>Al</c><c>   1</c></rc>
    <rc><c>Al</c><c>   1</c></rc>
    <rc><c>Al</c><c>   1</c></rc>
   </set>
  </array>
  <array name="atomtypes" >
   <dimension dim="1">type</dimension>
   <field type="int">atomspertype</field>
   <field type="string">element</field>
   <field>mass</field>
   <field>valence</field>
   <field type="string">pseudopotential</field>
   <set>
    <rc><c>  16</c><c>Al</c><c>     26.98100000</c><c>      3.00000000</c><c>  PAW_PBE Al 04Jan2001                  </c></rc>
   </set>
  </array>
 </atominfo>
 <structure name="initialpos" >
  <crystal>
   <varray name="basis" >
    <v>       2.85595457       0.00000000       0.00000000 </v>
    <v>      -0.00000000       8.56786372       0.00000000 </v>
    <v>       0.01000000       0.00000000      24.23357816 </v>
   </varray>
   <i name="volume">    592.98183471 </i>
   <varray name="rec_basis" >
    <v>       0.35014563       0.00000000      -0.00014449 </v>
    <v>       0.00000000       0.11671521       0.00000000 </v>
    <v>      -0.00000000      -0.00000000       0.04126506 </v>
   </varray>
  </crystal>
  <varray name="positions" >
   <v>       0.87500000       0.09722222       0.09722222 </v>
   <v>       0.87500000       0.54166667       0.04166667 </v>
   <v>       0.37500000       0.81944444       0.06944444 </v>
   <v>       0.37500000       0.26388889       0.01388889 </v>
   <v>       0.87500000       0.20833333       0.20833333 </v>
   <v>       0.87500000       0.65277778       0.15277778 </v>
   <v>       0.37500000       0.93055556       0.18055556 </v>
   <v>       0.37500000       0.37500000       0.12500000 </v>
   <v>       0.87500000       0.31944444       0.31944444 </v>
   <v>       0.87500000       0.76388889       0.26388889 </v>
   <v>       0.37500000       0.04166667       0.29166667 </v>
   <v>       0.37500000       0.48611111       0.23611111 </v>
   <v>       0.87500000       0.43055556       0.43055556 </v>
   <v>       0.87500000       0.87500000       0.37500000 </v>
   <v>       0.37500000       0.15277778       0.40277778 </v>
   <v>       0.37500000       0.59722222       0.34722222 </v>
  </varray>
 </structure>
 <calculation>
  <scstep>
   <time name="dav">  133.93  137.40</time>
   <time name="total">  134.00  137.49</time>
   <energy>
    <i name="alphaZ">     -1.45005341 </i>
    <i name="ewald">   4189.85804882 </i>
    <i name="hartreedc">  -4988.01342443 </i>
    <i name="XCdc">   -423.06372726 </i>
    <i name="pawpsdc">   1059.20251401 </i>
    <i name="pawaedc">   -547.92993211 </i>
    <i name="eentropy">     -0.00130853 </i>
    <i name="bandstr">    -90.33028183 </i>
    <i name="atom">    856.61046915 </i>
    <i name="e_fr_energy">     54.88230441 </i>
    <i name="e_wo_entrp">     54.88361294 </i>
    <i name="e_0_energy">     54.88274059 </i>
   </energy>
  </scstep>
  <scstep>
   <time name="dav">  171.05  175.55</time>
   <time name="total">  171.06  175.56</time>
   <energy>
    <i name="e_fr_energy">    -55.14161099 </i>
    <i name="e_wo_entrp">    -55.14174263 </i>
    <i name="e_0_energy">    -55.14165487 </i>
   </energy>
  </scstep>
  <scstep>
   <time name="dav">  180.84  185.47</time>
   <time name="total">  180.85  185.48</time>
   <energy>
    <i name="e_fr_energy">    -59.26226132 </i>
    <i name="e_wo_entrp">    -59.26258193 </i>
    <i name="e_0_energy">    -59.26236819 </i>
   </energy>
  </scstep>
  <scstep>
   <time name="dav">  216.90  222.54</time>
   <time name="total">  216.91  222.55</time>
   <energy>
    <i name="e_fr_energy">    -59.47394347 </i>
    <i name="e_wo_entrp">    -59.47426431 </i>
    <i name="e_0_energy">    -59.47405042 </i>
   </energy>
  </scstep>
  <scstep>
   <time name="dav">  202.59  207.91</time>
   <time name="total">  208.76  214.26</time>
   <energy>
    <i name="e_fr_energy">    -59.47642298 </i>
    <i name="e_wo_entrp">    -59.47674328 </i>
    <i name="e_0_energy">    -59.47652975 </i>
   </energy>
  </scstep>
  <scstep>
   <time name="diag">   27.10   27.92</time>
   <time name="diis">   74.41   76.51</time>
   <time name="orth">    2.40    2.45</time>
   <time name="total">  109.42  112.57</time>
   <energy>
    <i name="e_fr_energy">    -57.81680263 </i>
    <i name="e_wo_entrp">    -57.81248697 </i>
    <i name="e_0_energy">    -57.81536408 </i>
   </energy>
  </scstep>
  <scstep>
   <time name="diag">   27.07   27.89</time>
   <time name="diis">   72.18   74.16</time>
   <time name="orth">    2.32    2.38</time>
   <time name="total">  107.14  110.17</time>
   <energy>
    <i name="e_fr_energy">    -57.20399109 </i>
    <i name="e_wo_entrp">    -57.20033307 </i>
    <i name="e_0_energy">    -57.20277175 </i>
   </energy>
  </scstep>
  <scstep>
   <time name="diag">   24.93   25.65</time>
   <time name="diis">   80.37   82.72</time>
   <time name="orth">    2.11    2.18</time>
   <time name="total">  113.11  116.40</time>
   <energy>
    <i name="e_fr_energy">    -57.01008150 </i>
    <i name="e_wo_entrp">    -57.00498591 </i>
    <i name="e_0_energy">    -57.00838297 </i>
   </energy>
  </scstep>
  <scstep>
   <time name="diag">   27.12   27.90</time>
   <time name="diis">   83.14   85.35</time>
   <time name="orth">    1.94    1.99</time>
   <time name="total">  118.16  121.39</time>
   <energy>
    <i name="e_fr_energy">    -56.99805540 </i>
    <i name="e_wo_entrp">    -56.99300032 </i>
    <i name="e_0_energy">    -56.99637038 </i>
   </energy>
  </scstep>
  <scstep>
   <time name="diag">   27.85   28.63</time>
   <time name="diis">   83.75   86.14</time>
   <time name="orth">    1.95    2.01</time>
   <time name="total">  119.76  123.15</time>
   <energy>
    <i name="e_fr_energy">    -56.99579472 </i>
    <i name="e_wo_entrp">    -56.99057951 </i>
    <i name="e_0_energy">    -56.99405632 </i>
   </energy>
  </scstep>
  <scstep>
   <time name="diag">   25.98   26.68</time>
   <time name="diis">   80.64   82.90</time>
   <time name="orth">    2.07    2.14</time>
   <time name="total">  114.72  117.94</time>
   <energy>
    <i name="e_fr_energy">    -56.99509265 </i>
    <i name="e_wo_entrp">    -56.98980498 </i>
    <i name="e_0_energy">    -56.99333009 </i>
   </energy>
  </scstep>
  <scstep>
   <time name="diag">   27.41   28.23</time>
   <time name="diis">   81.25   83.55</time>
   <time name="orth">    2.05    2.12</time>
   <time name="total">  117.38  120.77</time>
   <energy>
    <i name="e_fr_energy">    -56.99535537 </i>
    <i name="e_wo_entrp">    -56.99009946 </i>
    <i name="e_0_energy">    -56.99360340 </i>
   </energy>
  </scstep>
  <scstep>
   <time name="diag">   25.49   26.23</time>
   <time name="diis">   79.31   81.47</time>
   <time name="orth">    1.48    1.53</time>
   <time name="total">  112.58  115.70</time>
   <energy>
    <i name="e_fr_energy">    -56.99586091 </i>
    <i name="e_wo_entrp">    -56.99058745 </i>
    <i name="e_0_energy">    -56.99410309 </i>
   </energy>
  </scstep>
  <scstep>
   <time name="diag">   30.67   31.51</time>
   <time name="diis">   78.77   80.78</time>
   <time name="orth">    2.37    2.43</time>
   <time name="total">  118.28  121.37</time>
   <energy>
    <i name="e_fr_energy">    -56.99625444 </i>
    <i name="e_wo_entrp">    -56.99096550 </i>
    <i name="e_0_energy">    -56.99449146 </i>
   </energy>
  </scstep>
  <scstep>
   <time name="diag">   27.32   28.12</time>
   <time name="diis">   76.64   78.66</time>
   <time name="orth">    2.58    2.66</time>
   <time name="total">  113.14  116.22</time>
   <energy>
    <i name="e_fr_energy">    -56.99648443 </i>
    <i name="e_wo_entrp">    -56.99120133 </i>
    <i name="e_0_energy">    -56.99472339 </i>
   </energy>
  </scstep>
  <scstep>
   <time name="diag">   27.94   28.70</time>
   <time name="diis">   76.53   78.67</time>
   <time name="orth">    1.91    1.96</time>
   <time name="total">  112.56  115.68</time>
   <energy>
    <i name="e_fr_energy">    -56.99666379 </i>
    <i name="e_wo_entrp">    -56.99138383 </i>
    <i name="e_0_energy">    -56.99490380 </i>
   </energy>
  </scstep>
  <scstep>
   <time name="diag">   27.65   28.45</time>
   <time name="diis">   72.09   74.09</time>
   <time name="orth">    1.90    1.94</time>
   <time name="total">  107.96  110.99</time>
   <energy>
    <i name="e_fr_energy">    -56.99684529 </i>
    <i name="e_wo_entrp">    -56.99156117 </i>
    <i name="e_0_energy">    -56.99508392 </i>
   </energy>
  </scstep>
  <scstep>
   <time name="diag">   26.24   26.99</time>
   <time name="diis">   71.37   73.32</time>
   <time name="orth">    2.39    2.46</time>
   <time name="total">  106.07  109.01</time>
   <energy>
    <i name="e_fr_energy">    -56.99693760 </i>
    <i name="e_wo_entrp">    -56.99165443 </i>
    <i name="e_0_energy">    -56.99517654 </i>
   </energy>
  </scstep>
  <scstep>
   <time name="diag">   27.41   28.20</time>
   <time name="diis">   69.53   71.51</time>
   <time name="orth">    1.73    1.79</time>
   <time name="total">  105.07  108.11</time>
   <energy>
    <i name="e_fr_energy">    -56.99699149 </i>
    <i name="e_wo_entrp">    -56.99170810 </i>
    <i name="e_0_energy">    -56.99523036 </i>
   </energy>
  </scstep>
  <scstep>
   <time name="diag">   26.35   27.08</time>
   <time name="diis">   68.40   70.26</time>
   <time name="orth">    2.34    2.41</time>
   <time name="total">  103.06  105.90</time>
   <energy>
    <i name="e_fr_energy">    -56.99699889 </i>
    <i name="e_wo_entrp">    -56.99171573 </i>
    <i name="e_0_energy">    -56.99523784 </i>
   </energy>
  </scstep>
  <scstep>
   <time name="diag">   25.90   26.66</time>
   <time name="diis">   66.89   68.61</time>
   <time name="orth">    1.85    1.88</time>
   <time name="total">  100.71  103.41</time>
   <energy>
    <i name="e_fr_energy">    -56.99700073 </i>
    <i name="e_wo_entrp">    -56.99171770 </i>
    <i name="e_0_energy">    -56.99523972 </i>
   </energy>
  </scstep>
  <scstep>
   <time name="diag">   27.31   28.08</time>
   <time name="diis">   64.07   65.77</time>
   <time name="orth">    2.02    2.08</time>
   <time name="total">   99.60  102.29</time>
   <energy>
    <i name="e_fr_energy">    -56.99700394 </i>
    <i name="e_wo_entrp">    -56.99172085 </i>
    <i name="e_0_energy">    -56.99524291 </i>
   </energy>
  </scstep>
  <scstep>
   <time name="diag">   28.74   29.57</time>
   <time name="diis">   62.77   64.43</time>
   <time name="orth">    1.65    1.68</time>
   <time name="total">   93.27   95.81</time>
   <energy>
    <i name="alphaZ">     -1.45005341 </i>
    <i name="ewald">   4189.85804882 </i>
    <i name="hartreedc">  -5056.30198060 </i>
    <i name="XCdc">   -421.03592054 </i>
    <i name="pawpsdc">   2116.29178096 </i>
    <i name="pawaedc">  -1605.19721715 </i>
    <i name="eentropy">     -0.00528299 </i>
    <i name="bandstr">   -135.76684846 </i>
    <i name="atom">    856.61046915 </i>
    <i name="e_fr_energy">    -56.99700422 </i>
    <i name="e_wo_entrp">    -56.99172123 </i>
    <i name="e_0_energy">    -56.99524322 </i>
   </energy>
[...]
       <r>    7.3805    0.0000 </r>
       <r>    7.5876    0.0000 </r>
       <r>    7.7515    0.0000 </r>
       <r>    7.8597    0.0000 </r>
       <r>    7.9805    0.0000 </r>
       <r>    8.1258    0.0000 </r>
       <r>    8.2649    0.0000 </r>
       <r>    8.3450    0.0000 </r>
       <r>    8.3925    0.0000 </r>
       <r>    8.5096    0.0000 </r>
       <r>    8.5461    0.0000 </r>
       <r>    8.6622    0.0000 </r>
       <r>    8.7812    0.0000 </r>
       <r>    8.9478    0.0000 </r>
       <r>    9.3036    0.0000 </r>
       <r>    9.5187    0.0000 </r>
       <r>    9.5681    0.0000 </r>
       <r>    9.7294    0.0000 </r>
       <r>   10.0379    0.0000 </r>
      </set>
      <set comment="kpoint 560">
       <r>   -9.4822    1.0000 </r>
       <r>   -8.6448    1.0000 </r>
       <r>   -7.7063    1.0000 </r>
       <r>   -7.4073    1.0000 </r>
       <r>   -7.2281    1.0000 </r>
       <r>   -6.8599    1.0000 </r>
       <r>   -6.4742    1.0000 </r>
       <r>   -5.7099    1.0000 </r>
       <r>   -5.4764    1.0000 </r>
       <r>   -5.1148    1.0000 </r>
       <r>   -3.7906    1.0000 </r>
       <r>   -3.6188    1.0000 </r>
       <r>   -3.3664    1.0000 </r>
       <r>   -2.0949    1.0000 </r>
       <r>   -1.7707    1.0000 </r>
       <r>   -1.6977    1.0000 </r>
       <r>   -1.4941    1.0000 </r>
       <r>   -1.4215    1.0000 </r>
       <r>   -1.0718    1.0000 </r>
       <r>   -0.3679    1.0000 </r>
       <r>    0.3044    1.0000 </r>
       <r>    0.4388    1.0000 </r>
       <r>    0.6853    1.0000 </r>
       <r>    0.9619    1.0083 </r>
       <r>    1.2886    0.7803 </r>
       <r>    2.1329   -0.0000 </r>
       <r>    2.2067   -0.0000 </r>
       <r>    2.8021   -0.0000 </r>
       <r>    3.0265   -0.0000 </r>
       <r>    3.5353   -0.0000 </r>
       <r>    4.1724   -0.0000 </r>
       <r>    4.4921   -0.0000 </r>
       <r>    4.8551   -0.0000 </r>
       <r>    5.0622   -0.0000 </r>
       <r>    5.1968   -0.0000 </r>
       <r>    5.5046   -0.0000 </r>
       <r>    6.1201   -0.0000 </r>
       <r>    6.3275   -0.0000 </r>
       <r>    6.5558   -0.0000 </r>
       <r>    6.6205   -0.0000 </r>
       <r>    6.9664    0.0000 </r>
       <r>    7.0149    0.0000 </r>
       <r>    7.1496    0.0000 </r>
       <r>    7.2756    0.0000 </r>
       <r>    7.3613    0.0000 </r>
       <r>    7.6918    0.0000 </r>
       <r>    7.7506    0.0000 </r>
       <r>    7.7751    0.0000 </r>
       <r>    8.1572    0.0000 </r>
       <r>    8.2530    0.0000 </r>
       <r>    8.3900    0.0000 </r>
       <r>    8.4161    0.0000 </r>
       <r>    8.5645    0.0000 </r>
       <r>    8.5907    0.0000 </r>
       <r>    8.7675    0.0000 </r>
       <r>    8.7796    0.0000 </r>
       <r>    8.8705    0.0000 </r>
       <r>    8.9674    0.0000 </r>
       <r>    9.1991    0.0000 </r>
       <r>    9.2769    0.0000 </r>
       <r>    9.3103    0.0000 </r>
       <r>    9.4380    0.0000 </r>
       <r>    9.5726    0.0000 </r>
       <r>    9.6411    0.0000 </r>
      </set>
     </set>
    </set>
   </array>
  </eigenvalues>
  <separator name="orbital magnetization" >
   <v name="MAGDIPOLOUT">      0.00000000      0.00000000      0.00000000</v>
  </separator>
  <dos>
   <i name="efermi">      1.35957881 </i>
   <total>
    <array>
     <dimension dim="1">gridpoints</dimension>
     <dimension dim="2">spin</dimension>
     <field>energy</field>
     <field>total</field>
     <field>integrated</field>
     <set>
      <set comment="spin 1">
       <r>   -11.4822     0.0000     0.0000 </r>
       <r>   -11.4012     0.0000     0.0000 </r>
       <r>   -11.3203     0.0000     0.0000 </r>
       <r>   -11.2393     0.0000     0.0000 </r>
       <r>   -11.1583    -0.0000    -0.0000 </r>
       <r>   -11.0774    -0.0000    -0.0000 </r>
       <r>   -10.9964    -0.0000    -0.0000 </r>
       <r>   -10.9154    -0.0000    -0.0000 </r>
       <r>   -10.8345    -0.0000    -0.0000 </r>
       <r>   -10.7535    -0.0000    -0.0000 </r>
       <r>   -10.6725    -0.0000    -0.0000 </r>
       <r>   -10.5916    -0.0000    -0.0000 </r>
       <r>   -10.5106    -0.0000    -0.0000 </r>
       <r>   -10.4297    -0.0000    -0.0000 </r>
       <r>   -10.3487    -0.0000    -0.0000 </r>
       <r>   -10.2677    -0.0000    -0.0000 </r>
       <r>   -10.1868    -0.0000    -0.0000 </r>
       <r>   -10.1058    -0.0000    -0.0000 </r>
       <r>   -10.0248    -0.0002    -0.0000 </r>
       <r>    -9.9439    -0.0016    -0.0002 </r>
       <r>    -9.8629    -0.0074    -0.0008 </r>
       <r>    -9.7819    -0.0220    -0.0025 </r>
       <r>    -9.7010    -0.0349    -0.0054 </r>
       <r>    -9.6200     0.0069    -0.0048 </r>
       <r>    -9.5391     0.1828     0.0100 </r>
       <r>    -9.4581     0.4974     0.0503 </r>
       <r>    -9.3771     0.8240     0.1170 </r>
       <r>    -9.2962     1.0233     0.1998 </r>
       <r>    -9.2152     1.0811     0.2874 </r>
       <r>    -9.1342     1.0720     0.3742 </r>
       <r>    -9.0533     1.0519     0.4593 </r>
       <r>    -8.9723     1.0281     0.5426 </r>
       <r>    -8.8913     1.0063     0.6240 </r>
       <r>    -8.8104     1.0284     0.7073 </r>
       <r>    -8.7294     1.1631     0.8015 </r>
       <r>    -8.6485     1.4459     0.9185 </r>
       <r>    -8.5675     1.7947     1.0638 </r>
       <r>    -8.4865     2.0575     1.2304 </r>
       <r>    -8.4056     2.1723     1.4063 </r>
       <r>    -8.3246     2.1833     1.5831 </r>
       <r>    -8.2436     2.1426     1.7565 </r>
       <r>    -8.1627     2.0717     1.9243 </r>
       <r>    -8.0817     1.9974     2.0860 </r>
       <r>    -8.0007     1.9768     2.2460 </r>
       <r>    -7.9198     2.0213     2.4097 </r>
       <r>    -7.8388     2.0831     2.5784 </r>
       <r>    -7.7579     2.1513     2.7525 </r>
       <r>    -7.6769     2.1987     2.9306 </r>
       <r>    -7.5959     2.1525     3.1048 </r>
       <r>    -7.5150     2.0979     3.2747 </r>
       <r>    -7.4340     2.2603     3.4577 </r>
       <r>    -7.3530     2.6349     3.6710 </r>
       <r>    -7.2721     2.9662     3.9112 </r>
       <r>    -7.1911     3.1527     4.1664 </r>
       <r>    -7.1101     3.2820     4.4321 </r>
       <r>    -7.0292     3.3325     4.7020 </r>
       <r>    -6.9482     3.2350     4.9639 </r>
       <r>    -6.8672     3.0836     5.2135 </r>
       <r>    -6.7863     2.9677     5.4538 </r>
       <r>    -6.7053     2.8190     5.6821 </r>
       <r>    -6.6244     2.6729     5.8985 </r>
       <r>    -6.5434     2.7530     6.1214 </r>
       <r>    -6.4624     3.0826     6.3709 </r>
       <r>    -6.3815     3.3605     6.6430 </r>
       <r>    -6.3005     3.3798     6.9167 </r>
       <r>    -6.2195     3.2671     7.1812 </r>
       <r>    -6.1386     3.1876     7.4392 </r>
       <r>    -6.0576     3.1565     7.6948 </r>
       <r>    -5.9766     3.2362     7.9568 </r>
       <r>    -5.8957     3.4656     8.2374 </r>
       <r>    -5.8147     3.6598     8.5337 </r>
       <r>    -5.7338     3.7402     8.8365 </r>
       <r>    -5.6528     3.9011     9.1524 </r>
       <r>    -5.5718     4.1588     9.4891 </r>
       <r>    -5.4909     4.2558     9.8337 </r>
       <r>    -5.4099     4.1336    10.1683 </r>
       <r>    -5.3289     4.0512    10.4963 </r>
       <r>    -5.2480     4.1556    10.8328 </r>
       <r>    -5.1670     4.2315    11.1754 </r>
       <r>    -5.0860     4.0288    11.5016 </r>
       <r>    -5.0051     3.6801    11.7995 </r>
       <r>    -4.9241     3.5703    12.0886 </r>
       <r>    -4.8432     3.8178    12.3977 </r>
       <r>    -4.7622     4.1241    12.7316 </r>
       <r>    -4.6812     4.2138    13.0728 </r>
       <r>    -4.6003     4.1854    13.4116 </r>
       <r>    -4.5193     4.2550    13.7561 </r>
       <r>    -4.4383     4.3766    14.1105 </r>
       <r>    -4.3574     4.3695    14.4643 </r>
       <r>    -4.2764     4.2277    14.8065 </r>
       <r>    -4.1954     4.0950    15.1381 </r>
       <r>    -4.1145     4.1003    15.4701 </r>
       <r>    -4.0335     4.3095    15.8190 </r>
       <r>    -3.9526     4.6973    16.1993 </r>
       <r>    -3.8716     5.0688    16.6097 </r>
       <r>    -3.7906     5.1956    17.0303 </r>
       <r>    -3.7097     5.1137    17.4444 </r>
       <r>    -3.6287     4.9872    17.8481 </r>
       <r>    -3.5477     4.8501    18.2408 </r>
       <r>    -3.4668     4.8023    18.6296 </r>
       <r>    -3.3858     5.0265    19.0366 </r>
       <r>    -3.3048     5.4306    19.4763 </r>
       <r>    -3.2239     5.6994    19.9377 </r>
       <r>    -3.1429     5.6632    20.3962 </r>
       <r>    -3.0620     5.3973    20.8332 </r>
       <r>    -2.9810     5.0828    21.2448 </r>
       <r>    -2.9000     4.7989    21.6333 </r>
       <r>    -2.8191     4.5641    22.0028 </r>
       <r>    -2.7381     4.5519    22.3714 </r>
       <r>    -2.6571     4.9141    22.7692 </r>
       <r>    -2.5762     5.4758    23.2126 </r>
       <r>    -2.4952     5.8312    23.6847 </r>
       <r>    -2.4142     5.7046    24.1465 </r>
       <r>    -2.3333     5.2585    24.5723 </r>
       <r>    -2.2523     5.0053    24.9775 </r>
       <r>    -2.1714     5.2028    25.3988 </r>
       <r>    -2.0904     5.4745    25.8420 </r>
       <r>    -2.0094     5.4533    26.2835 </r>
       <r>    -1.9285     5.4759    26.7269 </r>
       <r>    -1.8475     5.9826    27.2113 </r>
       <r>    -1.7665     6.6816    27.7522 </r>
       <r>    -1.6856     7.0004    28.3190 </r>
       <r>    -1.6046     6.8837    28.8763 </r>
       <r>    -1.5236     6.6392    29.4139 </r>
       <r>    -1.4427     6.4187    29.9335 </r>
       <r>    -1.3617     6.2481    30.4394 </r>
       <r>    -1.2807     6.2733    30.9473 </r>
       <r>    -1.1998     6.5386    31.4767 </r>
       <r>    -1.1188     6.7727    32.0251 </r>
       <r>    -1.0379     6.6933    32.5670 </r>
       <r>    -0.9569     6.2757    33.0751 </r>
       <r>    -0.8759     5.8046    33.5450 </r>
       <r>    -0.7950     5.6708    34.0042 </r>
       <r>    -0.7140     5.8746    34.4798 </r>
       <r>    -0.6330     6.0844    34.9724 </r>
       <r>    -0.5521     6.1453    35.4700 </r>
       <r>    -0.4711     6.0952    35.9635 </r>
       <r>    -0.3901     6.0319    36.4518 </r>
       <r>    -0.3092     6.1543    36.9501 </r>
       <r>    -0.2282     6.4670    37.4737 </r>
       <r>    -0.1473     6.5353    38.0028 </r>
       <r>    -0.0663     6.0506    38.4927 </r>
       <r>     0.0147     5.3755    38.9279 </r>
       <r>     0.0956     5.0509    39.3368 </r>
       <r>     0.1766     5.1547    39.7542 </r>
       <r>     0.2576     5.4534    40.1957 </r>
       <r>     0.3385     5.8305    40.6678 </r>
       <r>     0.4195     6.3927    41.1854 </r>
       <r>     0.5005     7.1929    41.7677 </r>
       <r>     0.5814     7.9931    42.4149 </r>
       <r>     0.6624     8.4048    43.0954 </r>
       <r>     0.7433     8.1481    43.7551 </r>
       <r>     0.8243     7.3302    44.3485 </r>
       <r>     0.9053     6.4973    44.8746 </r>
       <r>     0.9862     6.1310    45.3710 </r>
       <r>     1.0672     6.2589    45.8777 </r>
       <r>     1.1482     6.6730    46.4180 </r>
       <r>     1.2291     7.1938    47.0004 </r>
       <r>     1.3101     7.6195    47.6173 </r>
       <r>     1.3911     7.7039    48.2411 </r>
       <r>     1.4720     7.4203    48.8419 </r>
       <r>     1.5530     7.0832    49.4153 </r>
       <r>     1.6339     6.9746    49.9800 </r>
       <r>     1.7149     7.1086    50.5556 </r>
       <r>     1.7959     7.4168    51.1561 </r>
       <r>     1.8768     7.7718    51.7853 </r>
       <r>     1.9578     8.0079    52.4336 </r>
       <r>     2.0388     8.1571    53.0941 </r>
       <r>     2.1197     8.2677    53.7635 </r>
       <r>     2.2007     8.1403    54.4225 </r>
       <r>     2.2817     7.7361    55.0489 </r>
       <r>     2.3626     7.3551    55.6444 </r>
       <r>     2.4436     7.0449    56.2148 </r>
       <r>     2.5245     6.5323    56.7436 </r>
       <r>     2.6055     5.9160    57.2226 </r>
       <r>     2.6865     5.7892    57.6913 </r>
       <r>     2.7674     6.5930    58.2251 </r>
       <r>     2.8484     8.0746    58.8789 </r>
       <r>     2.9294     9.3959    59.6396 </r>
       <r>     3.0103     9.8487    60.4370 </r>
       <r>     3.0913     9.3877    61.1971 </r>
       <r>     3.1723     8.4670    61.8826 </r>
       <r>     3.2532     7.7042    62.5064 </r>
       <r>     3.3342     7.5597    63.1184 </r>
       <r>     3.4152     7.9330    63.7607 </r>
       <r>     3.4961     8.3144    64.4339 </r>
       <r>     3.5771     8.4903    65.1213 </r>
       <r>     3.6580     8.6455    65.8213 </r>
       <r>     3.7390     8.7825    66.5323 </r>
       <r>     3.8200     8.6246    67.2306 </r>
       <r>     3.9009     8.1152    67.8876 </r>
       <r>     3.9819     7.5971    68.5027 </r>
       <r>     4.0629     7.4475    69.1057 </r>
       <r>     4.1438     7.7324    69.7317 </r>
       <r>     4.2248     8.2766    70.4018 </r>
       <r>     4.3058     8.9025    71.1226 </r>
       <r>     4.3867     9.4066    71.8842 </r>
       <r>     4.4677     9.5030    72.6536 </r>
       <r>     4.5486     9.1306    73.3929 </r>
       <r>     4.6296     8.7294    74.0996 </r>
       <r>     4.7106     8.7982    74.8120 </r>
       <r>     4.7915     9.1993    75.5568 </r>
       <r>     4.8725     9.4625    76.3229 </r>
       <r>     4.9535     9.5688    77.0976 </r>
       <r>     5.0344     9.7990    77.8910 </r>
       <r>     5.1154    10.1635    78.7139 </r>
       <r>     5.1964    10.4004    79.5559 </r>
       <r>     5.2773    10.2452    80.3854 </r>
       <r>     5.3583     9.6928    81.1702 </r>
       <r>     5.4392     9.1840    81.9137 </r>
       <r>     5.5202     9.2607    82.6635 </r>
       <r>     5.6012     9.9558    83.4696 </r>
       <r>     5.6821    10.7933    84.3435 </r>
       <r>     5.7631    11.2639    85.2554 </r>
       <r>     5.8441    11.2205    86.1639 </r>
       <r>     5.9250    11.0198    87.0561 </r>
       <r>     6.0060    11.1120    87.9558 </r>
       <r>     6.0870    11.4815    88.8853 </r>
       <r>     6.1679    11.7880    89.8397 </r>
       <r>     6.2489    11.8884    90.8023 </r>
       <r>     6.3298    11.9584    91.7705 </r>
       <r>     6.4108    12.1598    92.7550 </r>
       <r>     6.4918    12.3696    93.7565 </r>
       <r>     6.5727    12.3175    94.7537 </r>
       <r>     6.6537    11.8906    95.7164 </r>
       <r>     6.7347    11.3763    96.6375 </r>
       <r>     6.8156    11.3166    97.5537 </r>
       <r>     6.8966    11.9260    98.5193 </r>
       <r>     6.9776    12.8547    99.5601 </r>
       <r>     7.0585    13.5608   100.6580 </r>
       <r>     7.1395    13.7351   101.7701 </r>
       <r>     7.2204    13.4208   102.8567 </r>
       <r>     7.3014    12.8620   103.8980 </r>
       <r>     7.3824    12.3107   104.8947 </r>
       <r>     7.4633    11.9799   105.8647 </r>
       <r>     7.5443    12.0067   106.8368 </r>
       <r>     7.6253    12.3677   107.8381 </r>
       <r>     7.7062    12.8863   108.8814 </r>
       <r>     7.7872    13.2694   109.9558 </r>
       <r>     7.8682    13.2182   111.0260 </r>
       <r>     7.9491    12.7760   112.0604 </r>
       <r>     8.0301    12.4221   113.0661 </r>
       <r>     8.1111    12.4401   114.0733 </r>
       <r>     8.1920    12.5087   115.0861 </r>
       <r>     8.2730    12.3387   116.0851 </r>
       <r>     8.3539    12.1128   117.0658 </r>
       <r>     8.4349    11.9400   118.0325 </r>
       <r>     8.5159    11.6494   118.9756 </r>
       <r>     8.5968    11.2019   119.8826 </r>
       <r>     8.6778    10.6318   120.7434 </r>
       <r>     8.7588     9.8907   121.5442 </r>
       <r>     8.8397     9.0610   122.2778 </r>
       <r>     8.9207     8.2949   122.9494 </r>
       <r>     9.0017     7.5526   123.5609 </r>
       <r>     9.0826     6.6741   124.1012 </r>
       <r>     9.1636     5.7132   124.5638 </r>
       <r>     9.2445     4.9975   124.9684 </r>
       <r>     9.3255     4.6907   125.3482 </r>
       <r>     9.4065     4.5587   125.7173 </r>
       <r>     9.4874     4.3420   126.0688 </r>
       <r>     9.5684     4.0368   126.3956 </r>
       <r>     9.6494     3.7061   126.6957 </r>
       <r>     9.7303     3.2621   126.9598 </r>
       <r>     9.8113     2.5895   127.1695 </r>
       <r>     9.8923     1.8173   127.3166 </r>
       <r>     9.9732     1.2496   127.4178 </r>
       <r>    10.0542     1.0087   127.4994 </r>
       <r>    10.1351     0.9714   127.5781 </r>
       <r>    10.2161     1.0000   127.6591 </r>
       <r>    10.2971     1.0058   127.7405 </r>
       <r>    10.3780     0.8972   127.8131 </r>
       <r>    10.4590     0.6856   127.8686 </r>
       <r>    10.5400     0.5185   127.9106 </r>
       <r>    10.6209     0.4519   127.9472 </r>
       <r>    10.7019     0.3715   127.9773 </r>
       <r>    10.7829     0.2201   127.9951 </r>
       <r>    10.8638     0.0778   128.0014 </r>
       <r>    10.9448     0.0066   128.0019 </r>
       <r>    11.0257    -0.0105   128.0011 </r>
       <r>    11.1067    -0.0082   128.0004 </r>
       <r>    11.1877    -0.0037   128.0001 </r>
       <r>    11.2686    -0.0011   128.0000 </r>
       <r>    11.3496    -0.0002   128.0000 </r>
       <r>    11.4306    -0.0000   128.0000 </r>
       <r>    11.5115    -0.0000   128.0000 </r>
       <r>    11.5925    -0.0000   128.0000 </r>
       <r>    11.6735    -0.0000   128.0000 </r>
       <r>    11.7544    -0.0000   128.0000 </r>
       <r>    11.8354    -0.0000   128.0000 </r>
       <r>    11.9163    -0.0000   128.0000 </r>
       <r>    11.9973    -0.0000   128.0000 </r>
       <r>    12.0783    -0.0000   128.0000 </r>
       <r>    12.1592     0.0000   128.0000 </r>
       <r>    12.2402     0.0000   128.0000 </r>
       <r>    12.3212     0.0000   128.0000 </r>
       <r>    12.4021     0.0000   128.0000 </r>
       <r>    12.4831     0.0000   128.0000 </r>
       <r>    12.5641     0.0000   128.0000 </r>
       <r>    12.6450     0.0000   128.0000 </r>
       <r>    12.7260     0.0000   128.0000 </r>
       <r>    12.8069     0.0000   128.0000 </r>
      </set>
     </set>
    </array>
   </total>
  </dos>
 </calculation>
 <structure name="finalpos" >
  <crystal>
   <varray name="basis" >
    <v>       2.85595457       0.00000000       0.00000000 </v>
    <v>      -0.00000000       8.56786372       0.00000000 </v>
    <v>       0.01000000       0.00000000      24.23357816 </v>
   </varray>
   <i name="volume">    592.98183471 </i>
   <varray name="rec_basis" >
    <v>       0.35014563       0.00000000      -0.00014449 </v>
    <v>       0.00000000       0.11671521       0.00000000 </v>
    <v>      -0.00000000      -0.00000000       0.04126506 </v>
   </varray>
  </crystal>
  <varray name="positions" >
   <v>       0.87500000       0.09722222       0.09722222 </v>
   <v>       0.87500000       0.54166667       0.04166667 </v>
   <v>       0.37500000       0.81944444       0.06944444 </v>
   <v>       0.37500000       0.26388889       0.01388889 </v>
   <v>       0.87500000       0.20833333       0.20833333 </v>
   <v>       0.87500000       0.65277778       0.15277778 </v>
   <v>       0.37500000       0.93055556       0.18055556 </v>
   <v>       0.37500000       0.37500000       0.12500000 </v>
   <v>       0.87500000       0.31944444       0.31944444 </v>
   <v>       0.87500000       0.76388889       0.26388889 </v>
   <v>       0.37500000       0.04166667       0.29166667 </v>
   <v>       0.37500000       0.48611111       0.23611111 </v>
   <v>       0.87500000       0.43055556       0.43055556 </v>
   <v>       0.87500000       0.87500000       0.37500000 </v>
   <v>       0.37500000       0.15277778       0.40277778 </v>
   <v>       0.37500000       0.59722222       0.34722222 </v>
  </varray>
 </structure>
</modeling>
