ITEM: TIMESTEP
0
ITEM: NUMBER OF ATOMS
4
ITEM: BOX BOUNDS xy xz yz pp pp pp
-8.0999977700000003e-02 4.0499988870000001e+00 -8.0999977700000003e-02
0.0000000000000000e+00 4.0491888062000001e+00 0.0000000000000000e+00
0.0000000000000000e+00 4.0499988870000001e+00 0.0000000000000000e+00
ITEM: ATOMS id type xs ys zs fx fy fz
1 1 0 0 0 -1.63226e-10 -3.40898e-11 -2.35055e-16
3 1 0.5 0.5 0 1.63227e-10 3.409e-11 1.79598e-16
2 1 1 0.5 0.5 1.63226e-10 3.40897e-11 1.02674e-16
4 1 0.5 0 0.5 -1.63226e-10 -3.40898e-11 -4.71628e-17
ITEM: TIMESTEP
2
ITEM: NUMBER OF ATOMS
4
ITEM: BOX BOUNDS xy xz yz pp pp pp
-8.0999977700000003e-02 4.0499988870000001e+00 -8.0999977700000003e-02
0.0000000000000000e+00 4.0491888062000001e+00 0.0000000000000000e+00
0.0000000000000000e+00 4.0499988870000001e+00 0.0000000000000000e+00
ITEM: ATOMS id type xs ys zs fx fy fz
3 1 0.5 0.5 0 -1.82103e-15 -8.49494e-15 -1.77809e-16
4 1 0.5 0 0.5 2.98372e-15 1.1293e-14 2.06459e-16
1 1 1 0 5.95257e-19 3.02536e-15 8.75688e-15 1.50081e-16
2 1 1 0.5 0.5 -4.19109e-15 -1.15567e-14 -1.78677e-16
