
4 atoms
1 atom types
   0.0000000000    3.6796681892 xlo xhi
   0.0000000000    3.6796681892 ylo yhi
   0.0000000000    3.6796681892 zlo zhi
   0.0000000000    0.0000000000    0.0000000000 xy xz yz

Atoms # atomic

     1      1    0.0000000000    0.0000000000    0.0000000000
     2      1    0.0000000000    1.8398340946    1.8398340946
     3      1    1.8398340946    1.8398340946    0.0000000000
     4      1    1.8398340946    0.0000000000    1.8398340946
