
8 atoms
1 atom types
   0.0000000000    2.8637816768 xlo xhi
   0.0000000000    4.0499988870 ylo yhi
   0.0000000000   22.9102534142 zlo zhi
  -0.0000000000    0.0100000000    0.0000000000 xy xz yz

Atoms # atomic

     1      1    2.1487737576    0.0000000000    2.1478362576
     2      1    0.7162579192    2.0249994435    0.7159454192
     3      1    2.1500237576    0.0000000000    5.0116179344
     4      1    0.7175079192    2.0249994435    3.5797270960
     5      1    2.1512737576    0.0000000000    7.8753996111
     6      1    0.7187579192    2.0249994435    6.4435087727
     7      1    2.1525237576    0.0000000000   10.7391812879
     8      1    0.7200079192    2.0249994435    9.3072904495
