ITEM: TIMESTEP
0
ITEM: NUMBER OF ATOMS
8
ITEM: BOX BOUNDS xy xz yz pp pp pp
0.0000000000000000e+00 2.8737816767999997e+00 -0.0000000000000000e+00
0.0000000000000000e+00 4.0499988870000001e+00 1.0000000000000000e-02
0.0000000000000000e+00 2.2910253414200000e+01 0.0000000000000000e+00
ITEM: ATOMS id type xs ys zs fx fy fz
1 1 0.75 0 0.09375 -0.000384295 -4.16334e-17 -0.264059
3 1 0.75 0 0.21875 8.7155e-05 -2.50451e-17 0.199687
5 1 0.75 0 0.34375 -0.000216156 -2.90024e-17 -0.598755
7 1 0.75 0 0.46875 -0.000902081 -2.77556e-17 0.534383
2 1 0.25 0.5 0.03125 0.000902081 2.77556e-17 -0.534383
4 1 0.25 0.5 0.15625 0.000216156 1.38778e-17 0.598755
6 1 0.25 0.5 0.28125 -8.7155e-05 6.17995e-18 -0.199687
8 1 0.25 0.5 0.40625 0.000384295 6.93889e-17 0.264059
