 running   14 mpi-ranks, with    2 threads/rank, on    1 nodes
 distrk:  each k-point on   14 cores,    1 groups
 distr:  one band on    1 cores,   14 groups
 vasp.6.4.2 20Jul23 (build Apr 22 2024 22:35:45) complex                         
 POSCAR found type information on POSCAR Al
 POSCAR found :  1 types and       4 ions
 scaLAPACK will be used
 -----------------------------------------------------------------------------
|                                                                             |
|               ----> ADVICE to this user running VASP <----                  |
|                                                                             |
|     You have a (more or less) 'small supercell' and for smaller cells       |
|     it is recommended to use the reciprocal-space projection scheme!        |
|     The real-space optimization is not efficient for small cells and it     |
|     is also less accurate ...                                               |
|     Therefore, set LREAL=.FALSE. in the INCAR file.                         |
|                                                                             |
 -----------------------------------------------------------------------------

 LDA part: xc-table for Pade appr. of Perdew
 POSCAR, INCAR and KPOINTS ok, starting setup
 FFT: planning ... GRIDC
 FFT: planning ... GRID_SOFT
 FFT: planning ... GRID
 WAVECAR not read
 entering main loop
       N       E                     dE             d eps       ncg     rms          rms(c)
DAV:   1    -0.254564509858E+01   -0.25456E+01   -0.38537E+03  6202   0.523E+02
DAV:   2    -0.150102917035E+02   -0.12465E+02   -0.12139E+02  9128   0.480E+01
DAV:   3    -0.150772119247E+02   -0.66920E-01   -0.66796E-01  8218   0.475E+00
DAV:   4    -0.150773719833E+02   -0.16006E-03   -0.16005E-03 10080   0.223E-01
DAV:   5    -0.150773720543E+02   -0.71028E-07   -0.70133E-07  8288   0.389E-03    0.261E+00
RMM:   6    -0.150252963827E+02    0.52076E-01   -0.53957E-03  6160   0.427E-01    0.153E+00
RMM:   7    -0.149871965805E+02    0.38100E-01   -0.16485E-02  6160   0.714E-01    0.225E-01
RMM:   8    -0.149871665639E+02    0.30017E-04   -0.57826E-04  6160   0.160E-01    0.279E-02
RMM:   9    -0.149871723017E+02   -0.57379E-05   -0.99083E-05  6160   0.690E-02    0.234E-02
RMM:  10    -0.149871733075E+02   -0.10058E-05   -0.22189E-05  6160   0.332E-02    0.226E-02
RMM:  11    -0.149871688465E+02    0.44610E-05   -0.43784E-06  6070   0.128E-02    0.520E-03
RMM:  12    -0.149871687453E+02    0.10112E-06   -0.11718E-06  4569   0.812E-03
   1 F= -.14987169E+02 E0= -.14987966E+02  d E =-.149872E+02
 curvature:   0.00 expect dE= 0.000E+00 dE for cont linesearch  0.000E+00
 trial: gam= 0.00000 g(F)=  0.733E-63 g(S)=  0.723E-08 ort = 0.000E+00 (trialstep = 0.100E+01)
 search vector abs. value=  0.733E-08
 reached required accuracy - stopping structural energy minimisation
