 vasp.5.4.4.18Apr17-6-g9f103f2a35 (build Nov 07 2022 11:18:25) complex          
  
 executed on             LinuxIFC date 2024.05.28  09:30:03
 running on   32 total cores
 distrk:  each k-point on   32 cores,    1 groups
 distr:  one band on NCORES_PER_BAND=   1 cores,   32 groups


--------------------------------------------------------------------------------------------------------


 INCAR:
 POTCAR:    PAW_PBE Al 04Jan2001                  

 ----------------------------------------------------------------------------- 
|                                                                             |
|           W    W    AA    RRRRR   N    N  II  N    N   GGGG   !!!           |
|           W    W   A  A   R    R  NN   N  II  NN   N  G    G  !!!           |
|           W    W  A    A  R    R  N N  N  II  N N  N  G       !!!           |
|           W WW W  AAAAAA  RRRRR   N  N N  II  N  N N  G  GGG   !            |
|           WW  WW  A    A  R   R   N   NN  II  N   NN  G    G                |
|           W    W  A    A  R    R  N    N  II  N    N   GGGG   !!!           |
|                                                                             |
|      For optimal performance we recommend to set                            |
|        NCORE= 4 - approx SQRT( number of cores)                             |
|      NCORE specifies how many cores store one orbital (NPAR=cpu/NCORE).     |
|      This setting can  greatly improve the performance of VASP for DFT.     |
|      The default,   NCORE=1            might be grossly inefficient         |
|      on modern multi-core architectures or massively parallel machines.     |
|      Do your own testing !!!!                                               |
|      Unfortunately you need to use the default for GW and RPA calculations. |
|      (for HF NCORE is supported but not extensively tested yet)             |
|                                                                             |
 ----------------------------------------------------------------------------- 

 POTCAR:    PAW_PBE Al 04Jan2001                  
   SHA256 =  17880443556af62b473fe41b62a467bd001ad55d2cabe504a3f22e34d4e9db96 Al
   COPYR  = (c) Copyright 04Jan2001 Georg Kresse                                
   COPYR  = This file is part of the software VASP. Any use, copying, and all ot
   COPYR  = If you do not have a valid VASP license, you may not use, copy or di
   VRHFIN =Al: s2p1                                                             
   LEXCH  = PE                                                                  
   EATOM  =    53.5387 eV,    3.9350 Ry                                         
                                                                                
   TITEL  = PAW_PBE Al 04Jan2001                                                
   LULTRA =        F    use ultrasoft PP ?                                      
   IUNSCR =        1    unscreen: 0-lin 1-nonlin 2-no                           
   RPACOR =    1.500    partial core radius                                     
   POMASS =   26.981; ZVAL   =    3.000    mass and valenz                      
   RCORE  =    1.900    outmost cutoff radius                                   
   RWIGS  =    2.650; RWIGS  =    1.402    wigner-seitz radius (au A)           
   ENMAX  =  240.300; ENMIN  =  180.225 eV                                      
   ICORE  =        2    local potential                                         
   LCOR   =        T    correct aug charges                                     
   LPAW   =        T    paw PP                                                  
   EAUG   =  291.052                                                            
   DEXC   =    0.000                                                            
   RMAX   =    1.939    core radius for proj-oper                               
   RAUG   =    1.300    factor for augmentation sphere                          
   RDEP   =    1.966    radius for radial grids                                 
   RDEPT  =    1.856    core radius for aug-charge                              
                                                                                
   Atomic configuration                                                         
    6 entries                                                                   
     n  l   j            E        occ.                                          
     1  0  0.50     -1511.1048   2.0000                                         
     2  0  0.50      -108.1629   2.0000                                         
     2  1  1.50       -69.6402   6.0000                                         
     3  0  0.50        -7.7528   2.0000                                         
     3  1  1.50        -2.7121   1.0000                                         
     3  2  2.50        -2.7212   0.0000                                         
   Description                                                                  
     l       E           TYP  RCUT    TYP  RCUT                                 
     0     -7.7528455     23  1.900                                             
     0     -3.3096929     23  1.900                                             
     1     -2.7120682     23  1.900                                             
     1     13.6058260     23  1.900                                             
     2     -2.7211652      7  1.900                                             
  local pseudopotential read in
  partial core-charges read in
  partial kinetic energy density read in
  atomic valenz-charges read in
  non local Contribution for L=           0  read in
    real space projection operators read in
  non local Contribution for L=           0  read in
    real space projection operators read in
  non local Contribution for L=           1  read in
    real space projection operators read in
  non local Contribution for L=           1  read in
    real space projection operators read in
    PAW grid and wavefunctions read in
 
   number of l-projection  operators is LMAX  =           4
   number of lm-projection operators is LMMAX =           8
 

 ----------------------------------------------------------------------------- 
|                                                                             |
|  ADVICE TO THIS USER RUNNING 'VASP/VAMP'   (HEAR YOUR MASTER'S VOICE ...):  |
|                                                                             |
|      You have a (more or less) 'small supercell' and for smaller cells      |
|      it is recommended  to use the reciprocal-space projection scheme!      |
|      The real space optimization is not  efficient for small cells and it   |
|      is also less accurate ...                                              |
|      Therefore set LREAL=.FALSE. in the  INCAR file                         |
|                                                                             |
 ----------------------------------------------------------------------------- 

 Optimization of the real space projectors (new method)

 maximal supplied QI-value         = 19.84
 optimisation between [QCUT,QGAM] = [ 10.12, 20.44] = [ 28.68,116.96] Ry 
 Optimized for a Real-space Cutoff    1.38 Angstroem

   l    n(q)    QCUT    max X(q) W(low)/X(q) W(high)/X(q)  e(spline) 
   0      8    10.119   176.870    0.39E-04    0.93E-04    0.54E-07
   0      8    10.119   105.762    0.37E-04    0.91E-04    0.53E-07
   1      8    10.119    55.370    0.18E-03    0.13E-03    0.19E-06
   1      8    10.119    20.208    0.17E-03    0.12E-03    0.18E-06
  PAW_PBE Al 04Jan2001                  :
 energy of atom  1       EATOM=  -53.5387
 kinetic energy error for atom=    0.0005 (will be added to EATOM!!)
 
 
 POSCAR: Al4                                     
  positions in direct lattice
  No initial velocities read in
 exchange correlation table for  LEXCH =        8
   RHO(1)=    0.500       N(1)  =     2000
   RHO(2)=  100.500       N(2)  =     4000
 


--------------------------------------------------------------------------------------------------------


 ion  position               nearest neighbor table
   1  0.000  0.000  0.000-   2 2.86   3 2.86   4 2.86   2 2.86   3 2.86   2 2.86   4 2.86   2 2.86
                             3 2.86   4 2.86   3 2.86   4 2.86
   2  0.000  0.500  0.500-   1 2.86   3 2.86   4 2.86   1 2.86   4 2.86   1 2.86   3 2.86   1 2.86
                             3 2.86   4 2.86   4 2.86   3 2.86
   3  0.500  0.000  0.500-   1 2.86   2 2.86   4 2.86   1 2.86   4 2.86   2 2.86   4 2.86   4 2.86
                             1 2.86   2 2.86   1 2.86   2 2.86
   4  0.500  0.500  0.000-   1 2.86   2 2.86   3 2.86   2 2.86   3 2.86   1 2.86   3 2.86   3 2.86
                             1 2.86   2 2.86   2 2.86   1 2.86
 
  LATTYP: Found a simple cubic cell.
 ALAT       =     4.0389296932
  
  Lattice vectors:
  
 A1 = (   4.0389296932,   0.0000000000,   0.0000000000)
 A2 = (  -0.0000000000,   4.0389296932,   0.0000000000)
 A3 = (   0.0000000000,   0.0000000000,   4.0389296932)


Analysis of symmetry for initial positions (statically):
=====================================================================
 Subroutine PRICEL returns following result:
 
  LATTYP: Found a face centered cubic cell.
 ALAT       =     4.0389296932
  
  Lattice vectors:
  
 A1 = (   2.0194648466,   2.0194648466,  -0.0000000000)
 A2 = (   2.0194648466,   0.0000000000,  -2.0194648466)
 A3 = (   0.0000000000,   2.0194648466,  -2.0194648466)
 
   4 primitive cells build up your supercell.
 

 Routine SETGRP: Setting up the symmetry group for a 
 simple cubic supercell.


 Subroutine GETGRP returns: Found 48 space group operations
 (whereof 48 operations were pure point group operations)
 out of a pool of 48 trial point group operations.


The static configuration has the point symmetry O_h .


Analysis of symmetry for dynamics (positions and initial velocities):
=====================================================================
 Subroutine PRICEL returns following result:
 
  LATTYP: Found a face centered cubic cell.
 ALAT       =     4.0389296932
  
  Lattice vectors:
  
 A1 = (   2.0194648466,   2.0194648466,  -0.0000000000)
 A2 = (   2.0194648466,   0.0000000000,  -2.0194648466)
 A3 = (   0.0000000000,   2.0194648466,  -2.0194648466)
 
   4 primitive cells build up your supercell.
 

 Routine SETGRP: Setting up the symmetry group for a 
 simple cubic supercell.


 Subroutine GETGRP returns: Found 48 space group operations
 (whereof 48 operations were pure point group operations)
 out of a pool of 48 trial point group operations.


The dynamic configuration has the point symmetry O_h .


 Subroutine INISYM returns: Found 48 space group operations
 (whereof 48 operations are pure point group operations),
 and found     4 'primitive' translations

 
 
 KPOINTS: Automatic kpoint scheme                 

Automatic generation of k-mesh.
Space group operators:
 irot       det(A)        alpha          n_x          n_y          n_z        tau_x        tau_y        tau_z
    1     1.000000     0.000000     1.000000     0.000000     0.000000     0.000000     0.000000     0.000000
    2    -1.000000     0.000000     1.000000     0.000000     0.000000     0.000000     0.000000     0.000000
    3     1.000000   120.000000    -0.577350    -0.577350    -0.577350     0.000000     0.000000     0.000000
    4    -1.000000   120.000000    -0.577350    -0.577350    -0.577350     0.000000     0.000000     0.000000
    5     1.000000   120.000000     0.577350     0.577350     0.577350     0.000000     0.000000     0.000000
    6    -1.000000   120.000000     0.577350     0.577350     0.577350     0.000000     0.000000     0.000000
    7     1.000000    90.000000     0.000000    -0.000000    -1.000000     0.000000     0.000000     0.000000
    8    -1.000000    90.000000     0.000000    -0.000000    -1.000000     0.000000     0.000000     0.000000
    9     1.000000   180.000000     0.000000    -0.707107    -0.707107     0.000000     0.000000     0.000000
   10    -1.000000   180.000000     0.000000    -0.707107    -0.707107     0.000000     0.000000     0.000000
   11     1.000000    90.000000    -0.000000     1.000000     0.000000     0.000000     0.000000     0.000000
   12    -1.000000    90.000000    -0.000000     1.000000     0.000000     0.000000     0.000000     0.000000
   13     1.000000   180.000000    -0.000000    -0.000000     1.000000     0.000000     0.000000     0.000000
   14    -1.000000   180.000000    -0.000000    -0.000000     1.000000     0.000000     0.000000     0.000000
   15     1.000000   120.000000    -0.577350     0.577350     0.577350     0.000000     0.000000     0.000000
   16    -1.000000   120.000000    -0.577350     0.577350     0.577350     0.000000     0.000000     0.000000
   17     1.000000   120.000000    -0.577350     0.577350    -0.577350     0.000000     0.000000     0.000000
   18    -1.000000   120.000000    -0.577350     0.577350    -0.577350     0.000000     0.000000     0.000000
   19     1.000000    90.000000     0.000000    -0.000000     1.000000     0.000000     0.000000     0.000000
   20    -1.000000    90.000000     0.000000    -0.000000     1.000000     0.000000     0.000000     0.000000
   21     1.000000    90.000000    -1.000000     0.000000     0.000000     0.000000     0.000000     0.000000
   22    -1.000000    90.000000    -1.000000     0.000000     0.000000     0.000000     0.000000     0.000000
   23     1.000000   180.000000    -0.707107     0.000000    -0.707107     0.000000     0.000000     0.000000
   24    -1.000000   180.000000    -0.707107     0.000000    -0.707107     0.000000     0.000000     0.000000
   25     1.000000   120.000000     0.577350    -0.577350     0.577350     0.000000     0.000000     0.000000
   26    -1.000000   120.000000     0.577350    -0.577350     0.577350     0.000000     0.000000     0.000000
   27     1.000000   120.000000    -0.577350    -0.577350     0.577350     0.000000     0.000000     0.000000
   28    -1.000000   120.000000    -0.577350    -0.577350     0.577350     0.000000     0.000000     0.000000
   29     1.000000   180.000000     1.000000     0.000000     0.000000     0.000000     0.000000     0.000000
   30    -1.000000   180.000000     1.000000     0.000000     0.000000     0.000000     0.000000     0.000000
   31     1.000000    90.000000     0.000000    -1.000000    -0.000000     0.000000     0.000000     0.000000
   32    -1.000000    90.000000     0.000000    -1.000000    -0.000000     0.000000     0.000000     0.000000
   33     1.000000   180.000000    -0.707107    -0.707107     0.000000     0.000000     0.000000     0.000000
   34    -1.000000   180.000000    -0.707107    -0.707107     0.000000     0.000000     0.000000     0.000000
   35     1.000000    90.000000     1.000000     0.000000     0.000000     0.000000     0.000000     0.000000
   36    -1.000000    90.000000     1.000000     0.000000     0.000000     0.000000     0.000000     0.000000
   37     1.000000   120.000000     0.577350    -0.577350    -0.577350     0.000000     0.000000     0.000000
   38    -1.000000   120.000000     0.577350    -0.577350    -0.577350     0.000000     0.000000     0.000000
   39     1.000000   180.000000     0.000000     1.000000     0.000000     0.000000     0.000000     0.000000
   40    -1.000000   180.000000     0.000000     1.000000     0.000000     0.000000     0.000000     0.000000
   41     1.000000   120.000000     0.577350     0.577350    -0.577350     0.000000     0.000000     0.000000
   42    -1.000000   120.000000     0.577350     0.577350    -0.577350     0.000000     0.000000     0.000000
   43     1.000000   180.000000    -0.000000    -0.707107     0.707107     0.000000     0.000000     0.000000
   44    -1.000000   180.000000    -0.000000    -0.707107     0.707107     0.000000     0.000000     0.000000
   45     1.000000   180.000000     0.707107    -0.707107     0.000000     0.000000     0.000000     0.000000
   46    -1.000000   180.000000     0.707107    -0.707107     0.000000     0.000000     0.000000     0.000000
   47     1.000000   180.000000     0.707107     0.000000    -0.707107     0.000000     0.000000     0.000000
   48    -1.000000   180.000000     0.707107     0.000000    -0.707107     0.000000     0.000000     0.000000
 
 Subroutine IBZKPT returns following result:
 ===========================================
 
 Found    220 irreducible k-points:
 
 Following reciprocal coordinates:
            Coordinates               Weight
  0.025000  0.025000  0.025000      8.000000
  0.075000  0.025000  0.025000     24.000000
  0.125000  0.025000  0.025000     24.000000
  0.175000  0.025000  0.025000     24.000000
  0.225000  0.025000  0.025000     24.000000
  0.275000  0.025000  0.025000     24.000000
  0.325000  0.025000  0.025000     24.000000
  0.375000  0.025000  0.025000     24.000000
  0.425000  0.025000  0.025000     24.000000
  0.475000  0.025000  0.025000     24.000000
  0.075000  0.075000  0.025000     24.000000
  0.125000  0.075000  0.025000     48.000000
  0.175000  0.075000  0.025000     48.000000
  0.225000  0.075000  0.025000     48.000000
  0.275000  0.075000  0.025000     48.000000
  0.325000  0.075000  0.025000     48.000000
  0.375000  0.075000  0.025000     48.000000
  0.425000  0.075000  0.025000     48.000000
  0.475000  0.075000  0.025000     48.000000
  0.125000  0.125000  0.025000     24.000000
  0.175000  0.125000  0.025000     48.000000
  0.225000  0.125000  0.025000     48.000000
  0.275000  0.125000  0.025000     48.000000
  0.325000  0.125000  0.025000     48.000000
  0.375000  0.125000  0.025000     48.000000
  0.425000  0.125000  0.025000     48.000000
  0.475000  0.125000  0.025000     48.000000
  0.175000  0.175000  0.025000     24.000000
  0.225000  0.175000  0.025000     48.000000
  0.275000  0.175000  0.025000     48.000000
  0.325000  0.175000  0.025000     48.000000
  0.375000  0.175000  0.025000     48.000000
  0.425000  0.175000  0.025000     48.000000
  0.475000  0.175000  0.025000     48.000000
  0.225000  0.225000  0.025000     24.000000
  0.275000  0.225000  0.025000     48.000000
  0.325000  0.225000  0.025000     48.000000
  0.375000  0.225000  0.025000     48.000000
  0.425000  0.225000  0.025000     48.000000
  0.475000  0.225000  0.025000     48.000000
  0.275000  0.275000  0.025000     24.000000
  0.325000  0.275000  0.025000     48.000000
  0.375000  0.275000  0.025000     48.000000
  0.425000  0.275000  0.025000     48.000000
  0.475000  0.275000  0.025000     48.000000
  0.325000  0.325000  0.025000     24.000000
  0.375000  0.325000  0.025000     48.000000
  0.425000  0.325000  0.025000     48.000000
  0.475000  0.325000  0.025000     48.000000
  0.375000  0.375000  0.025000     24.000000
  0.425000  0.375000  0.025000     48.000000
  0.475000  0.375000  0.025000     48.000000
  0.425000  0.425000  0.025000     24.000000
  0.475000  0.425000  0.025000     48.000000
  0.475000  0.475000  0.025000     24.000000
  0.075000  0.075000  0.075000      8.000000
  0.125000  0.075000  0.075000     24.000000
  0.175000  0.075000  0.075000     24.000000
  0.225000  0.075000  0.075000     24.000000
  0.275000  0.075000  0.075000     24.000000
  0.325000  0.075000  0.075000     24.000000
  0.375000  0.075000  0.075000     24.000000
  0.425000  0.075000  0.075000     24.000000
  0.475000  0.075000  0.075000     24.000000
  0.125000  0.125000  0.075000     24.000000
  0.175000  0.125000  0.075000     48.000000
  0.225000  0.125000  0.075000     48.000000
  0.275000  0.125000  0.075000     48.000000
  0.325000  0.125000  0.075000     48.000000
  0.375000  0.125000  0.075000     48.000000
  0.425000  0.125000  0.075000     48.000000
  0.475000  0.125000  0.075000     48.000000
  0.175000  0.175000  0.075000     24.000000
  0.225000  0.175000  0.075000     48.000000
  0.275000  0.175000  0.075000     48.000000
  0.325000  0.175000  0.075000     48.000000
  0.375000  0.175000  0.075000     48.000000
  0.425000  0.175000  0.075000     48.000000
  0.475000  0.175000  0.075000     48.000000
  0.225000  0.225000  0.075000     24.000000
  0.275000  0.225000  0.075000     48.000000
  0.325000  0.225000  0.075000     48.000000
  0.375000  0.225000  0.075000     48.000000
  0.425000  0.225000  0.075000     48.000000
  0.475000  0.225000  0.075000     48.000000
  0.275000  0.275000  0.075000     24.000000
  0.325000  0.275000  0.075000     48.000000
  0.375000  0.275000  0.075000     48.000000
  0.425000  0.275000  0.075000     48.000000
  0.475000  0.275000  0.075000     48.000000
  0.325000  0.325000  0.075000     24.000000
  0.375000  0.325000  0.075000     48.000000
  0.425000  0.325000  0.075000     48.000000
  0.475000  0.325000  0.075000     48.000000
  0.375000  0.375000  0.075000     24.000000
  0.425000  0.375000  0.075000     48.000000
  0.475000  0.375000  0.075000     48.000000
  0.425000  0.425000  0.075000     24.000000
  0.475000  0.425000  0.075000     48.000000
  0.475000  0.475000  0.075000     24.000000
  0.125000  0.125000  0.125000      8.000000
  0.175000  0.125000  0.125000     24.000000
  0.225000  0.125000  0.125000     24.000000
  0.275000  0.125000  0.125000     24.000000
  0.325000  0.125000  0.125000     24.000000
  0.375000  0.125000  0.125000     24.000000
  0.425000  0.125000  0.125000     24.000000
  0.475000  0.125000  0.125000     24.000000
  0.175000  0.175000  0.125000     24.000000
  0.225000  0.175000  0.125000     48.000000
  0.275000  0.175000  0.125000     48.000000
  0.325000  0.175000  0.125000     48.000000
  0.375000  0.175000  0.125000     48.000000
  0.425000  0.175000  0.125000     48.000000
  0.475000  0.175000  0.125000     48.000000
  0.225000  0.225000  0.125000     24.000000
  0.275000  0.225000  0.125000     48.000000
  0.325000  0.225000  0.125000     48.000000
  0.375000  0.225000  0.125000     48.000000
  0.425000  0.225000  0.125000     48.000000
  0.475000  0.225000  0.125000     48.000000
  0.275000  0.275000  0.125000     24.000000
  0.325000  0.275000  0.125000     48.000000
  0.375000  0.275000  0.125000     48.000000
  0.425000  0.275000  0.125000     48.000000
  0.475000  0.275000  0.125000     48.000000
  0.325000  0.325000  0.125000     24.000000
  0.375000  0.325000  0.125000     48.000000
  0.425000  0.325000  0.125000     48.000000
  0.475000  0.325000  0.125000     48.000000
  0.375000  0.375000  0.125000     24.000000
  0.425000  0.375000  0.125000     48.000000
  0.475000  0.375000  0.125000     48.000000
  0.425000  0.425000  0.125000     24.000000
  0.475000  0.425000  0.125000     48.000000
  0.475000  0.475000  0.125000     24.000000
  0.175000  0.175000  0.175000      8.000000
  0.225000  0.175000  0.175000     24.000000
  0.275000  0.175000  0.175000     24.000000
  0.325000  0.175000  0.175000     24.000000
  0.375000  0.175000  0.175000     24.000000
  0.425000  0.175000  0.175000     24.000000
  0.475000  0.175000  0.175000     24.000000
  0.225000  0.225000  0.175000     24.000000
  0.275000  0.225000  0.175000     48.000000
  0.325000  0.225000  0.175000     48.000000
  0.375000  0.225000  0.175000     48.000000
  0.425000  0.225000  0.175000     48.000000
  0.475000  0.225000  0.175000     48.000000
  0.275000  0.275000  0.175000     24.000000
  0.325000  0.275000  0.175000     48.000000
  0.375000  0.275000  0.175000     48.000000
  0.425000  0.275000  0.175000     48.000000
  0.475000  0.275000  0.175000     48.000000
  0.325000  0.325000  0.175000     24.000000
  0.375000  0.325000  0.175000     48.000000
  0.425000  0.325000  0.175000     48.000000
  0.475000  0.325000  0.175000     48.000000
  0.375000  0.375000  0.175000     24.000000
  0.425000  0.375000  0.175000     48.000000
  0.475000  0.375000  0.175000     48.000000
  0.425000  0.425000  0.175000     24.000000
  0.475000  0.425000  0.175000     48.000000
  0.475000  0.475000  0.175000     24.000000
  0.225000  0.225000  0.225000      8.000000
  0.275000  0.225000  0.225000     24.000000
  0.325000  0.225000  0.225000     24.000000
  0.375000  0.225000  0.225000     24.000000
  0.425000  0.225000  0.225000     24.000000
  0.475000  0.225000  0.225000     24.000000
  0.275000  0.275000  0.225000     24.000000
  0.325000  0.275000  0.225000     48.000000
  0.375000  0.275000  0.225000     48.000000
  0.425000  0.275000  0.225000     48.000000
  0.475000  0.275000  0.225000     48.000000
  0.325000  0.325000  0.225000     24.000000
  0.375000  0.325000  0.225000     48.000000
  0.425000  0.325000  0.225000     48.000000
  0.475000  0.325000  0.225000     48.000000
  0.375000  0.375000  0.225000     24.000000
  0.425000  0.375000  0.225000     48.000000
  0.475000  0.375000  0.225000     48.000000
  0.425000  0.425000  0.225000     24.000000
  0.475000  0.425000  0.225000     48.000000
  0.475000  0.475000  0.225000     24.000000
  0.275000  0.275000  0.275000      8.000000
  0.325000  0.275000  0.275000     24.000000
  0.375000  0.275000  0.275000     24.000000
  0.425000  0.275000  0.275000     24.000000
  0.475000  0.275000  0.275000     24.000000
  0.325000  0.325000  0.275000     24.000000
  0.375000  0.325000  0.275000     48.000000
  0.425000  0.325000  0.275000     48.000000
  0.475000  0.325000  0.275000     48.000000
  0.375000  0.375000  0.275000     24.000000
  0.425000  0.375000  0.275000     48.000000
  0.475000  0.375000  0.275000     48.000000
  0.425000  0.425000  0.275000     24.000000
  0.475000  0.425000  0.275000     48.000000
  0.475000  0.475000  0.275000     24.000000
  0.325000  0.325000  0.325000      8.000000
  0.375000  0.325000  0.325000     24.000000
  0.425000  0.325000  0.325000     24.000000
  0.475000  0.325000  0.325000     24.000000
  0.375000  0.375000  0.325000     24.000000
  0.425000  0.375000  0.325000     48.000000
  0.475000  0.375000  0.325000     48.000000
  0.425000  0.425000  0.325000     24.000000
  0.475000  0.425000  0.325000     48.000000
  0.475000  0.475000  0.325000     24.000000
  0.375000  0.375000  0.375000      8.000000
  0.425000  0.375000  0.375000     24.000000
  0.475000  0.375000  0.375000     24.000000
  0.425000  0.425000  0.375000     24.000000
  0.475000  0.425000  0.375000     48.000000
  0.475000  0.475000  0.375000     24.000000
  0.425000  0.425000  0.425000      8.000000
  0.475000  0.425000  0.425000     24.000000
  0.475000  0.475000  0.425000     24.000000
  0.475000  0.475000  0.475000      8.000000
 
 Following cartesian coordinates:
            Coordinates               Weight
  0.006190  0.006190  0.006190      8.000000
  0.018569  0.006190  0.006190     24.000000
  0.030949  0.006190  0.006190     24.000000
  0.043328  0.006190  0.006190     24.000000
  0.055708  0.006190  0.006190     24.000000
  0.068087  0.006190  0.006190     24.000000
  0.080467  0.006190  0.006190     24.000000
  0.092846  0.006190  0.006190     24.000000
  0.105226  0.006190  0.006190     24.000000
  0.117605  0.006190  0.006190     24.000000
  0.018569  0.018569  0.006190     24.000000
  0.030949  0.018569  0.006190     48.000000
  0.043328  0.018569  0.006190     48.000000
  0.055708  0.018569  0.006190     48.000000
  0.068087  0.018569  0.006190     48.000000
  0.080467  0.018569  0.006190     48.000000
  0.092846  0.018569  0.006190     48.000000
  0.105226  0.018569  0.006190     48.000000
  0.117605  0.018569  0.006190     48.000000
  0.030949  0.030949  0.006190     24.000000
  0.043328  0.030949  0.006190     48.000000
  0.055708  0.030949  0.006190     48.000000
  0.068087  0.030949  0.006190     48.000000
  0.080467  0.030949  0.006190     48.000000
  0.092846  0.030949  0.006190     48.000000
  0.105226  0.030949  0.006190     48.000000
  0.117605  0.030949  0.006190     48.000000
  0.043328  0.043328  0.006190     24.000000
  0.055708  0.043328  0.006190     48.000000
  0.068087  0.043328  0.006190     48.000000
  0.080467  0.043328  0.006190     48.000000
  0.092846  0.043328  0.006190     48.000000
  0.105226  0.043328  0.006190     48.000000
  0.117605  0.043328  0.006190     48.000000
  0.055708  0.055708  0.006190     24.000000
  0.068087  0.055708  0.006190     48.000000
  0.080467  0.055708  0.006190     48.000000
  0.092846  0.055708  0.006190     48.000000
  0.105226  0.055708  0.006190     48.000000
  0.117605  0.055708  0.006190     48.000000
  0.068087  0.068087  0.006190     24.000000
  0.080467  0.068087  0.006190     48.000000
  0.092846  0.068087  0.006190     48.000000
  0.105226  0.068087  0.006190     48.000000
  0.117605  0.068087  0.006190     48.000000
  0.080467  0.080467  0.006190     24.000000
  0.092846  0.080467  0.006190     48.000000
  0.105226  0.080467  0.006190     48.000000
  0.117605  0.080467  0.006190     48.000000
  0.092846  0.092846  0.006190     24.000000
  0.105226  0.092846  0.006190     48.000000
  0.117605  0.092846  0.006190     48.000000
  0.105226  0.105226  0.006190     24.000000
  0.117605  0.105226  0.006190     48.000000
  0.117605  0.117605  0.006190     24.000000
  0.018569  0.018569  0.018569      8.000000
  0.030949  0.018569  0.018569     24.000000
  0.043328  0.018569  0.018569     24.000000
  0.055708  0.018569  0.018569     24.000000
  0.068087  0.018569  0.018569     24.000000
  0.080467  0.018569  0.018569     24.000000
  0.092846  0.018569  0.018569     24.000000
  0.105226  0.018569  0.018569     24.000000
  0.117605  0.018569  0.018569     24.000000
  0.030949  0.030949  0.018569     24.000000
  0.043328  0.030949  0.018569     48.000000
  0.055708  0.030949  0.018569     48.000000
  0.068087  0.030949  0.018569     48.000000
  0.080467  0.030949  0.018569     48.000000
  0.092846  0.030949  0.018569     48.000000
  0.105226  0.030949  0.018569     48.000000
  0.117605  0.030949  0.018569     48.000000
  0.043328  0.043328  0.018569     24.000000
  0.055708  0.043328  0.018569     48.000000
  0.068087  0.043328  0.018569     48.000000
  0.080467  0.043328  0.018569     48.000000
  0.092846  0.043328  0.018569     48.000000
  0.105226  0.043328  0.018569     48.000000
  0.117605  0.043328  0.018569     48.000000
  0.055708  0.055708  0.018569     24.000000
  0.068087  0.055708  0.018569     48.000000
  0.080467  0.055708  0.018569     48.000000
  0.092846  0.055708  0.018569     48.000000
  0.105226  0.055708  0.018569     48.000000
  0.117605  0.055708  0.018569     48.000000
  0.068087  0.068087  0.018569     24.000000
  0.080467  0.068087  0.018569     48.000000
  0.092846  0.068087  0.018569     48.000000
  0.105226  0.068087  0.018569     48.000000
  0.117605  0.068087  0.018569     48.000000
  0.080467  0.080467  0.018569     24.000000
  0.092846  0.080467  0.018569     48.000000
  0.105226  0.080467  0.018569     48.000000
  0.117605  0.080467  0.018569     48.000000
  0.092846  0.092846  0.018569     24.000000
  0.105226  0.092846  0.018569     48.000000
  0.117605  0.092846  0.018569     48.000000
  0.105226  0.105226  0.018569     24.000000
  0.117605  0.105226  0.018569     48.000000
  0.117605  0.117605  0.018569     24.000000
  0.030949  0.030949  0.030949      8.000000
  0.043328  0.030949  0.030949     24.000000
  0.055708  0.030949  0.030949     24.000000
  0.068087  0.030949  0.030949     24.000000
  0.080467  0.030949  0.030949     24.000000
  0.092846  0.030949  0.030949     24.000000
  0.105226  0.030949  0.030949     24.000000
  0.117605  0.030949  0.030949     24.000000
  0.043328  0.043328  0.030949     24.000000
  0.055708  0.043328  0.030949     48.000000
  0.068087  0.043328  0.030949     48.000000
  0.080467  0.043328  0.030949     48.000000
  0.092846  0.043328  0.030949     48.000000
  0.105226  0.043328  0.030949     48.000000
  0.117605  0.043328  0.030949     48.000000
  0.055708  0.055708  0.030949     24.000000
  0.068087  0.055708  0.030949     48.000000
  0.080467  0.055708  0.030949     48.000000
  0.092846  0.055708  0.030949     48.000000
  0.105226  0.055708  0.030949     48.000000
  0.117605  0.055708  0.030949     48.000000
  0.068087  0.068087  0.030949     24.000000
  0.080467  0.068087  0.030949     48.000000
  0.092846  0.068087  0.030949     48.000000
  0.105226  0.068087  0.030949     48.000000
  0.117605  0.068087  0.030949     48.000000
  0.080467  0.080467  0.030949     24.000000
  0.092846  0.080467  0.030949     48.000000
  0.105226  0.080467  0.030949     48.000000
  0.117605  0.080467  0.030949     48.000000
  0.092846  0.092846  0.030949     24.000000
  0.105226  0.092846  0.030949     48.000000
  0.117605  0.092846  0.030949     48.000000
  0.105226  0.105226  0.030949     24.000000
  0.117605  0.105226  0.030949     48.000000
  0.117605  0.117605  0.030949     24.000000
  0.043328  0.043328  0.043328      8.000000
  0.055708  0.043328  0.043328     24.000000
  0.068087  0.043328  0.043328     24.000000
  0.080467  0.043328  0.043328     24.000000
  0.092846  0.043328  0.043328     24.000000
  0.105226  0.043328  0.043328     24.000000
  0.117605  0.043328  0.043328     24.000000
  0.055708  0.055708  0.043328     24.000000
  0.068087  0.055708  0.043328     48.000000
  0.080467  0.055708  0.043328     48.000000
  0.092846  0.055708  0.043328     48.000000
  0.105226  0.055708  0.043328     48.000000
  0.117605  0.055708  0.043328     48.000000
  0.068087  0.068087  0.043328     24.000000
  0.080467  0.068087  0.043328     48.000000
  0.092846  0.068087  0.043328     48.000000
  0.105226  0.068087  0.043328     48.000000
  0.117605  0.068087  0.043328     48.000000
  0.080467  0.080467  0.043328     24.000000
  0.092846  0.080467  0.043328     48.000000
  0.105226  0.080467  0.043328     48.000000
  0.117605  0.080467  0.043328     48.000000
  0.092846  0.092846  0.043328     24.000000
  0.105226  0.092846  0.043328     48.000000
  0.117605  0.092846  0.043328     48.000000
  0.105226  0.105226  0.043328     24.000000
  0.117605  0.105226  0.043328     48.000000
  0.117605  0.117605  0.043328     24.000000
  0.055708  0.055708  0.055708      8.000000
  0.068087  0.055708  0.055708     24.000000
  0.080467  0.055708  0.055708     24.000000
  0.092846  0.055708  0.055708     24.000000
  0.105226  0.055708  0.055708     24.000000
  0.117605  0.055708  0.055708     24.000000
  0.068087  0.068087  0.055708     24.000000
  0.080467  0.068087  0.055708     48.000000
  0.092846  0.068087  0.055708     48.000000
  0.105226  0.068087  0.055708     48.000000
  0.117605  0.068087  0.055708     48.000000
  0.080467  0.080467  0.055708     24.000000
  0.092846  0.080467  0.055708     48.000000
  0.105226  0.080467  0.055708     48.000000
  0.117605  0.080467  0.055708     48.000000
  0.092846  0.092846  0.055708     24.000000
  0.105226  0.092846  0.055708     48.000000
  0.117605  0.092846  0.055708     48.000000
  0.105226  0.105226  0.055708     24.000000
  0.117605  0.105226  0.055708     48.000000
  0.117605  0.117605  0.055708     24.000000
  0.068087  0.068087  0.068087      8.000000
  0.080467  0.068087  0.068087     24.000000
  0.092846  0.068087  0.068087     24.000000
  0.105226  0.068087  0.068087     24.000000
  0.117605  0.068087  0.068087     24.000000
  0.080467  0.080467  0.068087     24.000000
  0.092846  0.080467  0.068087     48.000000
  0.105226  0.080467  0.068087     48.000000
  0.117605  0.080467  0.068087     48.000000
  0.092846  0.092846  0.068087     24.000000
  0.105226  0.092846  0.068087     48.000000
  0.117605  0.092846  0.068087     48.000000
  0.105226  0.105226  0.068087     24.000000
  0.117605  0.105226  0.068087     48.000000
  0.117605  0.117605  0.068087     24.000000
  0.080467  0.080467  0.080467      8.000000
  0.092846  0.080467  0.080467     24.000000
  0.105226  0.080467  0.080467     24.000000
  0.117605  0.080467  0.080467     24.000000
  0.092846  0.092846  0.080467     24.000000
  0.105226  0.092846  0.080467     48.000000
  0.117605  0.092846  0.080467     48.000000
  0.105226  0.105226  0.080467     24.000000
  0.117605  0.105226  0.080467     48.000000
  0.117605  0.117605  0.080467     24.000000
  0.092846  0.092846  0.092846      8.000000
  0.105226  0.092846  0.092846     24.000000
  0.117605  0.092846  0.092846     24.000000
  0.105226  0.105226  0.092846     24.000000
  0.117605  0.105226  0.092846     48.000000
  0.117605  0.117605  0.092846     24.000000
  0.105226  0.105226  0.105226      8.000000
  0.117605  0.105226  0.105226     24.000000
  0.117605  0.117605  0.105226     24.000000
  0.117605  0.117605  0.117605      8.000000
 


--------------------------------------------------------------------------------------------------------




 Dimension of arrays:
   k-points           NKPTS =    220   k-points in BZ     NKDIM =    220   number of bands    NBANDS=     32
   number of dos      NEDOS =    301   number of ions     NIONS =      4
   non local maximal  LDIM  =      4   non local SUM 2l+1 LMDIM =      8
   total plane-waves  NPLWV =  21952
   max r-space proj   IRMAX =   3722   max aug-charges    IRDMAX=  13165
   dimension x,y,z NGX =    28 NGY =   28 NGZ =   28
   dimension x,y,z NGXF=    56 NGYF=   56 NGZF=   56
   support grid    NGXF=    56 NGYF=   56 NGZF=   56
   ions per type =               4
   NGX,Y,Z   is equivalent  to a cutoff of  11.53, 11.53, 11.53 a.u.
   NGXF,Y,Z  is equivalent  to a cutoff of  23.05, 23.05, 23.05 a.u.

 SYSTEM =  Al fcc relaxation                       
 POSCAR =  Al4                                     

 Startparameter for this run:
   NWRITE =      2    write-flag & timer
   PREC   = accura    normal or accurate (medium, high low for compatibility)
   ISTART =      0    job   : 0-new  1-cont  2-samecut
   ICHARG =      2    charge: 1-file 2-atom 10-const
   ISPIN  =      1    spin polarized calculation?
   LNONCOLLINEAR =      F non collinear calculations
   LSORBIT =      F    spin-orbit coupling
   INIWAV =      1    electr: 0-lowe 1-rand  2-diag
   LASPH  =      F    aspherical Exc in radial PAW
   METAGGA=      F    non-selfconsistent MetaGGA calc.

 Electronic Relaxation 1
   ENCUT  =  400.0 eV  29.40 Ry    5.42 a.u.   6.59  6.59  6.59*2*pi/ulx,y,z
   ENINI  =  400.0     initial cutoff
   ENAUG  =  291.1 eV  augmentation charge cutoff
   NELM   =     60;   NELMIN=  4; NELMDL= -5     # of ELM steps 
   EDIFF  = 0.1E-05   stopping-criterion for ELM
   LREAL  =      T    real-space projection
   NLSPLINE    = F    spline interpolate recip. space projectors
   LCOMPAT=      F    compatible to vasp.4.4
   GGA_COMPAT  = T    GGA compatible to vasp.4.4-vasp.4.6
   LMAXPAW     = -100 max onsite density
   LMAXMIX     =    2 max onsite mixed and CHGCAR
   VOSKOWN=      0    Vosko Wilk Nusair interpolation
   ROPT   =   -0.00025
 Ionic relaxation
   EDIFFG = 0.1E-04   stopping-criterion for IOM
   NSW    =    100    number of steps for IOM
   NBLOCK =      1;   KBLOCK =    100    inner block; outer block 
   IBRION =      2    ionic relax: 0-MD 1-quasi-New 2-CG
   NFREE  =      1    steps in history (QN), initial steepest desc. (CG)
   ISIF   =      3    stress and relaxation
   IWAVPR =     11    prediction:  0-non 1-charg 2-wave 3-comb
   ISYM   =      2    0-nonsym 1-usesym 2-fastsym
   LCORR  =      T    Harris-Foulkes like correction to forces

   POTIM  = 0.5000    time-step for ionic-motion
   TEIN   =    0.0    initial temperature
   TEBEG  =    0.0;   TEEND  =   0.0 temperature during run
   SMASS  =  -3.00    Nose mass-parameter (am)
   estimated Nose-frequenzy (Omega)   =  0.10E-29 period in steps =****** mass=  -0.373E-27a.u.
   SCALEE = 1.0000    scale energy and forces
   NPACO  =    256;   APACO  = 16.0  distance and # of slots for P.C.
   PSTRESS=    0.0 pullay stress

  Mass of Ions in am
   POMASS =  26.98
  Ionic Valenz
   ZVAL   =   3.00
  Atomic Wigner-Seitz radii
   RWIGS  =  -1.00
  virtual crystal weights 
   VCA    =   1.00
   NELECT =      12.0000    total number of electrons
   NUPDOWN=      -1.0000    fix difference up-down

 DOS related values:
   EMIN   =  10.00;   EMAX   =-10.00  energy-range for DOS
   EFERMI =   0.00
   ISMEAR =     1;   SIGMA  =   0.20  broadening in eV -4-tet -1-fermi 0-gaus

 Electronic relaxation 2 (details)
   IALGO  =     68    algorithm
   LDIAG  =      T    sub-space diagonalisation (order eigenvalues)
   LSUBROT=      F    optimize rotation matrix (better conditioning)
   TURBO    =      0    0=normal 1=particle mesh
   IRESTART =      0    0=no restart 2=restart with 2 vectors
   NREBOOT  =      0    no. of reboots
   NMIN     =      0    reboot dimension
   EREF     =   0.00    reference energy to select bands
   IMIX   =      4    mixing-type and parameters
     AMIX     =   0.40;   BMIX     =  1.00
     AMIX_MAG =   1.60;   BMIX_MAG =  1.00
     AMIN     =   0.10
     WC   =   100.;   INIMIX=   1;  MIXPRE=   1;  MAXMIX= -45

 Intra band minimization:
   WEIMIN = 0.0010     energy-eigenvalue tresh-hold
   EBREAK =  0.78E-08  absolut break condition
   DEPER  =   0.30     relativ break condition  

   TIME   =   0.40     timestep for ELM

  volume/ion in A,a.u.               =      16.47       111.16
  Fermi-wavevector in a.u.,A,eV,Ry     =   0.927974  1.753616 11.716453  0.861135
  Thomas-Fermi vector in A             =   2.054101
 
 Write flags
   LWAVE        =      F    write WAVECAR
   LDOWNSAMPLE  =      F    k-point downsampling of WAVECAR
   LCHARG       =      F    write CHGCAR
   LVTOT        =      F    write LOCPOT, total local potential
   LVHAR        =      F    write LOCPOT, Hartree potential only
   LELF         =      F    write electronic localiz. function (ELF)
   LORBIT       =      0    0 simple, 1 ext, 2 COOP (PROOUT), +10 PAW based schemes


 Dipole corrections
   LMONO  =      F    monopole corrections only (constant potential shift)
   LDIPOL =      F    correct potential (dipole corrections)
   IDIPOL =      0    1-x, 2-y, 3-z, 4-all directions 
   EPSILON=  1.0000000 bulk dielectric constant

 Exchange correlation treatment:
   GGA     =    --    GGA type
   LEXCH   =     8    internal setting for exchange type
   VOSKOWN=      0    Vosko Wilk Nusair interpolation
   LHFCALC =     F    Hartree Fock is set to
   LHFONE  =     F    Hartree Fock one center treatment
   AEXX    =    0.0000 exact exchange contribution

 Linear response parameters
   LEPSILON=     F    determine dielectric tensor
   LRPA    =     F    only Hartree local field effects (RPA)
   LNABLA  =     F    use nabla operator in PAW spheres
   LVEL    =     F    velocity operator in full k-point grid
   LINTERFAST=   F  fast interpolation
   KINTER  =     0    interpolate to denser k-point grid
   CSHIFT  =0.1000    complex shift for real part using Kramers Kronig
   OMEGAMAX=  -1.0    maximum frequency
   DEG_THRESHOLD= 0.2000000E-02 threshold for treating states as degnerate
   RTIME   =   -0.100 relaxation time in fs
  (WPLASMAI=    0.000 imaginary part of plasma frequency in eV, 0.658/RTIME)
   DFIELD  = 0.0000000 0.0000000 0.0000000 field for delta impulse in time
 
 Orbital magnetization related:
   ORBITALMAG=     F  switch on orbital magnetization
   LCHIMAG   =     F  perturbation theory with respect to B field
   DQ        =  0.001000  dq finite difference perturbation B field
   LLRAUG    =     F  two centre corrections for induced B field



--------------------------------------------------------------------------------------------------------


 conjugate gradient relaxation of ions
 charge density and potential will be updated during run
 non-spin polarized calculation
 RMM-DIIS sequential band-by-band and
  variant of blocked Davidson during initial phase
 perform sub-space diagonalisation
    before iterative eigenvector-optimisation
 modified Broyden-mixing scheme, WC =      100.0
 initial mixing is a Kerker type mixing with AMIX =  0.4000 and BMIX =      1.0000
 Hartree-type preconditioning will be used
 using additional bands           26
 real space projection scheme for non local part
 use partial core corrections
 calculate Harris-corrections to forces 
   (improved forces if not selfconsistent)
 use gradient corrections 
 use of overlap-Matrix (Vanderbilt PP)
 Methfessel and Paxton  Order N= 1 SIGMA  =   0.20


--------------------------------------------------------------------------------------------------------


  energy-cutoff  :      400.00
  volume of cell :       65.89
      direct lattice vectors                 reciprocal lattice vectors
     4.038929693  0.000000000  0.000000000     0.247590346  0.000000000  0.000000000
    -0.000000000  4.038929693  0.000000000     0.000000000  0.247590346  0.000000000
     0.000000000  0.000000000  4.038929693    -0.000000000 -0.000000000  0.247590346

  length of vectors
     4.038929693  4.038929693  4.038929693     0.247590346  0.247590346  0.247590346


 
 k-points in units of 2pi/SCALE and weight: Automatic kpoint scheme                 
   0.00618976  0.00618976  0.00618976       0.001
   0.01856928  0.00618976  0.00618976       0.003
   0.03094879  0.00618976  0.00618976       0.003
   0.04332831  0.00618976  0.00618976       0.003
   0.05570783  0.00618976  0.00618976       0.003
   0.06808735  0.00618976  0.00618976       0.003
   0.08046686  0.00618976  0.00618976       0.003
   0.09284638  0.00618976  0.00618976       0.003
   0.10522590  0.00618976  0.00618976       0.003
   0.11760541  0.00618976  0.00618976       0.003
   0.01856928  0.01856928  0.00618976       0.003
   0.03094879  0.01856928  0.00618976       0.006
   0.04332831  0.01856928  0.00618976       0.006
   0.05570783  0.01856928  0.00618976       0.006
   0.06808735  0.01856928  0.00618976       0.006
   0.08046686  0.01856928  0.00618976       0.006
   0.09284638  0.01856928  0.00618976       0.006
   0.10522590  0.01856928  0.00618976       0.006
   0.11760541  0.01856928  0.00618976       0.006
   0.03094879  0.03094879  0.00618976       0.003
   0.04332831  0.03094879  0.00618976       0.006
   0.05570783  0.03094879  0.00618976       0.006
   0.06808735  0.03094879  0.00618976       0.006
   0.08046686  0.03094879  0.00618976       0.006
   0.09284638  0.03094879  0.00618976       0.006
   0.10522590  0.03094879  0.00618976       0.006
   0.11760541  0.03094879  0.00618976       0.006
   0.04332831  0.04332831  0.00618976       0.003
   0.05570783  0.04332831  0.00618976       0.006
   0.06808735  0.04332831  0.00618976       0.006
   0.08046686  0.04332831  0.00618976       0.006
   0.09284638  0.04332831  0.00618976       0.006
   0.10522590  0.04332831  0.00618976       0.006
   0.11760541  0.04332831  0.00618976       0.006
   0.05570783  0.05570783  0.00618976       0.003
   0.06808735  0.05570783  0.00618976       0.006
   0.08046686  0.05570783  0.00618976       0.006
   0.09284638  0.05570783  0.00618976       0.006
   0.10522590  0.05570783  0.00618976       0.006
   0.11760541  0.05570783  0.00618976       0.006
   0.06808735  0.06808735  0.00618976       0.003
   0.08046686  0.06808735  0.00618976       0.006
   0.09284638  0.06808735  0.00618976       0.006
   0.10522590  0.06808735  0.00618976       0.006
   0.11760541  0.06808735  0.00618976       0.006
   0.08046686  0.08046686  0.00618976       0.003
   0.09284638  0.08046686  0.00618976       0.006
   0.10522590  0.08046686  0.00618976       0.006
   0.11760541  0.08046686  0.00618976       0.006
   0.09284638  0.09284638  0.00618976       0.003
   0.10522590  0.09284638  0.00618976       0.006
   0.11760541  0.09284638  0.00618976       0.006
   0.10522590  0.10522590  0.00618976       0.003
   0.11760541  0.10522590  0.00618976       0.006
   0.11760541  0.11760541  0.00618976       0.003
   0.01856928  0.01856928  0.01856928       0.001
   0.03094879  0.01856928  0.01856928       0.003
   0.04332831  0.01856928  0.01856928       0.003
   0.05570783  0.01856928  0.01856928       0.003
   0.06808735  0.01856928  0.01856928       0.003
   0.08046686  0.01856928  0.01856928       0.003
   0.09284638  0.01856928  0.01856928       0.003
   0.10522590  0.01856928  0.01856928       0.003
   0.11760541  0.01856928  0.01856928       0.003
   0.03094879  0.03094879  0.01856928       0.003
   0.04332831  0.03094879  0.01856928       0.006
   0.05570783  0.03094879  0.01856928       0.006
   0.06808735  0.03094879  0.01856928       0.006
   0.08046686  0.03094879  0.01856928       0.006
   0.09284638  0.03094879  0.01856928       0.006
   0.10522590  0.03094879  0.01856928       0.006
   0.11760541  0.03094879  0.01856928       0.006
   0.04332831  0.04332831  0.01856928       0.003
   0.05570783  0.04332831  0.01856928       0.006
   0.06808735  0.04332831  0.01856928       0.006
   0.08046686  0.04332831  0.01856928       0.006
   0.09284638  0.04332831  0.01856928       0.006
   0.10522590  0.04332831  0.01856928       0.006
   0.11760541  0.04332831  0.01856928       0.006
   0.05570783  0.05570783  0.01856928       0.003
   0.06808735  0.05570783  0.01856928       0.006
   0.08046686  0.05570783  0.01856928       0.006
   0.09284638  0.05570783  0.01856928       0.006
   0.10522590  0.05570783  0.01856928       0.006
   0.11760541  0.05570783  0.01856928       0.006
   0.06808735  0.06808735  0.01856928       0.003
   0.08046686  0.06808735  0.01856928       0.006
   0.09284638  0.06808735  0.01856928       0.006
   0.10522590  0.06808735  0.01856928       0.006
   0.11760541  0.06808735  0.01856928       0.006
   0.08046686  0.08046686  0.01856928       0.003
   0.09284638  0.08046686  0.01856928       0.006
   0.10522590  0.08046686  0.01856928       0.006
   0.11760541  0.08046686  0.01856928       0.006
   0.09284638  0.09284638  0.01856928       0.003
   0.10522590  0.09284638  0.01856928       0.006
   0.11760541  0.09284638  0.01856928       0.006
   0.10522590  0.10522590  0.01856928       0.003
   0.11760541  0.10522590  0.01856928       0.006
   0.11760541  0.11760541  0.01856928       0.003
   0.03094879  0.03094879  0.03094879       0.001
   0.04332831  0.03094879  0.03094879       0.003
   0.05570783  0.03094879  0.03094879       0.003
   0.06808735  0.03094879  0.03094879       0.003
   0.08046686  0.03094879  0.03094879       0.003
   0.09284638  0.03094879  0.03094879       0.003
   0.10522590  0.03094879  0.03094879       0.003
   0.11760541  0.03094879  0.03094879       0.003
   0.04332831  0.04332831  0.03094879       0.003
   0.05570783  0.04332831  0.03094879       0.006
   0.06808735  0.04332831  0.03094879       0.006
   0.08046686  0.04332831  0.03094879       0.006
   0.09284638  0.04332831  0.03094879       0.006
   0.10522590  0.04332831  0.03094879       0.006
   0.11760541  0.04332831  0.03094879       0.006
   0.05570783  0.05570783  0.03094879       0.003
   0.06808735  0.05570783  0.03094879       0.006
   0.08046686  0.05570783  0.03094879       0.006
   0.09284638  0.05570783  0.03094879       0.006
   0.10522590  0.05570783  0.03094879       0.006
   0.11760541  0.05570783  0.03094879       0.006
   0.06808735  0.06808735  0.03094879       0.003
   0.08046686  0.06808735  0.03094879       0.006
   0.09284638  0.06808735  0.03094879       0.006
   0.10522590  0.06808735  0.03094879       0.006
   0.11760541  0.06808735  0.03094879       0.006
   0.08046686  0.08046686  0.03094879       0.003
   0.09284638  0.08046686  0.03094879       0.006
   0.10522590  0.08046686  0.03094879       0.006
   0.11760541  0.08046686  0.03094879       0.006
   0.09284638  0.09284638  0.03094879       0.003
   0.10522590  0.09284638  0.03094879       0.006
   0.11760541  0.09284638  0.03094879       0.006
   0.10522590  0.10522590  0.03094879       0.003
   0.11760541  0.10522590  0.03094879       0.006
   0.11760541  0.11760541  0.03094879       0.003
   0.04332831  0.04332831  0.04332831       0.001
   0.05570783  0.04332831  0.04332831       0.003
   0.06808735  0.04332831  0.04332831       0.003
   0.08046686  0.04332831  0.04332831       0.003
   0.09284638  0.04332831  0.04332831       0.003
   0.10522590  0.04332831  0.04332831       0.003
   0.11760541  0.04332831  0.04332831       0.003
   0.05570783  0.05570783  0.04332831       0.003
   0.06808735  0.05570783  0.04332831       0.006
   0.08046686  0.05570783  0.04332831       0.006
   0.09284638  0.05570783  0.04332831       0.006
   0.10522590  0.05570783  0.04332831       0.006
   0.11760541  0.05570783  0.04332831       0.006
   0.06808735  0.06808735  0.04332831       0.003
   0.08046686  0.06808735  0.04332831       0.006
   0.09284638  0.06808735  0.04332831       0.006
   0.10522590  0.06808735  0.04332831       0.006
   0.11760541  0.06808735  0.04332831       0.006
   0.08046686  0.08046686  0.04332831       0.003
   0.09284638  0.08046686  0.04332831       0.006
   0.10522590  0.08046686  0.04332831       0.006
   0.11760541  0.08046686  0.04332831       0.006
   0.09284638  0.09284638  0.04332831       0.003
   0.10522590  0.09284638  0.04332831       0.006
   0.11760541  0.09284638  0.04332831       0.006
   0.10522590  0.10522590  0.04332831       0.003
   0.11760541  0.10522590  0.04332831       0.006
   0.11760541  0.11760541  0.04332831       0.003
   0.05570783  0.05570783  0.05570783       0.001
   0.06808735  0.05570783  0.05570783       0.003
   0.08046686  0.05570783  0.05570783       0.003
   0.09284638  0.05570783  0.05570783       0.003
   0.10522590  0.05570783  0.05570783       0.003
   0.11760541  0.05570783  0.05570783       0.003
   0.06808735  0.06808735  0.05570783       0.003
   0.08046686  0.06808735  0.05570783       0.006
   0.09284638  0.06808735  0.05570783       0.006
   0.10522590  0.06808735  0.05570783       0.006
   0.11760541  0.06808735  0.05570783       0.006
   0.08046686  0.08046686  0.05570783       0.003
   0.09284638  0.08046686  0.05570783       0.006
   0.10522590  0.08046686  0.05570783       0.006
   0.11760541  0.08046686  0.05570783       0.006
   0.09284638  0.09284638  0.05570783       0.003
   0.10522590  0.09284638  0.05570783       0.006
   0.11760541  0.09284638  0.05570783       0.006
   0.10522590  0.10522590  0.05570783       0.003
   0.11760541  0.10522590  0.05570783       0.006
   0.11760541  0.11760541  0.05570783       0.003
   0.06808735  0.06808735  0.06808735       0.001
   0.08046686  0.06808735  0.06808735       0.003
   0.09284638  0.06808735  0.06808735       0.003
   0.10522590  0.06808735  0.06808735       0.003
   0.11760541  0.06808735  0.06808735       0.003
   0.08046686  0.08046686  0.06808735       0.003
   0.09284638  0.08046686  0.06808735       0.006
   0.10522590  0.08046686  0.06808735       0.006
   0.11760541  0.08046686  0.06808735       0.006
   0.09284638  0.09284638  0.06808735       0.003
   0.10522590  0.09284638  0.06808735       0.006
   0.11760541  0.09284638  0.06808735       0.006
   0.10522590  0.10522590  0.06808735       0.003
   0.11760541  0.10522590  0.06808735       0.006
   0.11760541  0.11760541  0.06808735       0.003
   0.08046686  0.08046686  0.08046686       0.001
   0.09284638  0.08046686  0.08046686       0.003
   0.10522590  0.08046686  0.08046686       0.003
   0.11760541  0.08046686  0.08046686       0.003
   0.09284638  0.09284638  0.08046686       0.003
   0.10522590  0.09284638  0.08046686       0.006
   0.11760541  0.09284638  0.08046686       0.006
   0.10522590  0.10522590  0.08046686       0.003
   0.11760541  0.10522590  0.08046686       0.006
   0.11760541  0.11760541  0.08046686       0.003
   0.09284638  0.09284638  0.09284638       0.001
   0.10522590  0.09284638  0.09284638       0.003
   0.11760541  0.09284638  0.09284638       0.003
   0.10522590  0.10522590  0.09284638       0.003
   0.11760541  0.10522590  0.09284638       0.006
   0.11760541  0.11760541  0.09284638       0.003
   0.10522590  0.10522590  0.10522590       0.001
   0.11760541  0.10522590  0.10522590       0.003
   0.11760541  0.11760541  0.10522590       0.003
   0.11760541  0.11760541  0.11760541       0.001
 
 k-points in reciprocal lattice and weights: Automatic kpoint scheme                 
   0.02500000  0.02500000  0.02500000       0.001
   0.07500000  0.02500000  0.02500000       0.003
   0.12500000  0.02500000  0.02500000       0.003
   0.17500000  0.02500000  0.02500000       0.003
   0.22500000  0.02500000  0.02500000       0.003
   0.27500000  0.02500000  0.02500000       0.003
   0.32500000  0.02500000  0.02500000       0.003
   0.37500000  0.02500000  0.02500000       0.003
   0.42500000  0.02500000  0.02500000       0.003
   0.47500000  0.02500000  0.02500000       0.003
   0.07500000  0.07500000  0.02500000       0.003
   0.12500000  0.07500000  0.02500000       0.006
   0.17500000  0.07500000  0.02500000       0.006
   0.22500000  0.07500000  0.02500000       0.006
   0.27500000  0.07500000  0.02500000       0.006
   0.32500000  0.07500000  0.02500000       0.006
   0.37500000  0.07500000  0.02500000       0.006
   0.42500000  0.07500000  0.02500000       0.006
   0.47500000  0.07500000  0.02500000       0.006
   0.12500000  0.12500000  0.02500000       0.003
   0.17500000  0.12500000  0.02500000       0.006
   0.22500000  0.12500000  0.02500000       0.006
   0.27500000  0.12500000  0.02500000       0.006
   0.32500000  0.12500000  0.02500000       0.006
   0.37500000  0.12500000  0.02500000       0.006
   0.42500000  0.12500000  0.02500000       0.006
   0.47500000  0.12500000  0.02500000       0.006
   0.17500000  0.17500000  0.02500000       0.003
   0.22500000  0.17500000  0.02500000       0.006
   0.27500000  0.17500000  0.02500000       0.006
   0.32500000  0.17500000  0.02500000       0.006
   0.37500000  0.17500000  0.02500000       0.006
   0.42500000  0.17500000  0.02500000       0.006
   0.47500000  0.17500000  0.02500000       0.006
   0.22500000  0.22500000  0.02500000       0.003
   0.27500000  0.22500000  0.02500000       0.006
   0.32500000  0.22500000  0.02500000       0.006
   0.37500000  0.22500000  0.02500000       0.006
   0.42500000  0.22500000  0.02500000       0.006
   0.47500000  0.22500000  0.02500000       0.006
   0.27500000  0.27500000  0.02500000       0.003
   0.32500000  0.27500000  0.02500000       0.006
   0.37500000  0.27500000  0.02500000       0.006
   0.42500000  0.27500000  0.02500000       0.006
   0.47500000  0.27500000  0.02500000       0.006
   0.32500000  0.32500000  0.02500000       0.003
   0.37500000  0.32500000  0.02500000       0.006
   0.42500000  0.32500000  0.02500000       0.006
   0.47500000  0.32500000  0.02500000       0.006
   0.37500000  0.37500000  0.02500000       0.003
   0.42500000  0.37500000  0.02500000       0.006
   0.47500000  0.37500000  0.02500000       0.006
   0.42500000  0.42500000  0.02500000       0.003
   0.47500000  0.42500000  0.02500000       0.006
   0.47500000  0.47500000  0.02500000       0.003
   0.07500000  0.07500000  0.07500000       0.001
   0.12500000  0.07500000  0.07500000       0.003
   0.17500000  0.07500000  0.07500000       0.003
   0.22500000  0.07500000  0.07500000       0.003
   0.27500000  0.07500000  0.07500000       0.003
   0.32500000  0.07500000  0.07500000       0.003
   0.37500000  0.07500000  0.07500000       0.003
   0.42500000  0.07500000  0.07500000       0.003
   0.47500000  0.07500000  0.07500000       0.003
   0.12500000  0.12500000  0.07500000       0.003
   0.17500000  0.12500000  0.07500000       0.006
   0.22500000  0.12500000  0.07500000       0.006
   0.27500000  0.12500000  0.07500000       0.006
   0.32500000  0.12500000  0.07500000       0.006
   0.37500000  0.12500000  0.07500000       0.006
   0.42500000  0.12500000  0.07500000       0.006
   0.47500000  0.12500000  0.07500000       0.006
   0.17500000  0.17500000  0.07500000       0.003
   0.22500000  0.17500000  0.07500000       0.006
   0.27500000  0.17500000  0.07500000       0.006
   0.32500000  0.17500000  0.07500000       0.006
   0.37500000  0.17500000  0.07500000       0.006
   0.42500000  0.17500000  0.07500000       0.006
   0.47500000  0.17500000  0.07500000       0.006
   0.22500000  0.22500000  0.07500000       0.003
   0.27500000  0.22500000  0.07500000       0.006
   0.32500000  0.22500000  0.07500000       0.006
   0.37500000  0.22500000  0.07500000       0.006
   0.42500000  0.22500000  0.07500000       0.006
   0.47500000  0.22500000  0.07500000       0.006
   0.27500000  0.27500000  0.07500000       0.003
   0.32500000  0.27500000  0.07500000       0.006
   0.37500000  0.27500000  0.07500000       0.006
   0.42500000  0.27500000  0.07500000       0.006
   0.47500000  0.27500000  0.07500000       0.006
   0.32500000  0.32500000  0.07500000       0.003
   0.37500000  0.32500000  0.07500000       0.006
   0.42500000  0.32500000  0.07500000       0.006
   0.47500000  0.32500000  0.07500000       0.006
   0.37500000  0.37500000  0.07500000       0.003
   0.42500000  0.37500000  0.07500000       0.006
   0.47500000  0.37500000  0.07500000       0.006
   0.42500000  0.42500000  0.07500000       0.003
   0.47500000  0.42500000  0.07500000       0.006
   0.47500000  0.47500000  0.07500000       0.003
   0.12500000  0.12500000  0.12500000       0.001
   0.17500000  0.12500000  0.12500000       0.003
   0.22500000  0.12500000  0.12500000       0.003
   0.27500000  0.12500000  0.12500000       0.003
   0.32500000  0.12500000  0.12500000       0.003
   0.37500000  0.12500000  0.12500000       0.003
   0.42500000  0.12500000  0.12500000       0.003
   0.47500000  0.12500000  0.12500000       0.003
   0.17500000  0.17500000  0.12500000       0.003
   0.22500000  0.17500000  0.12500000       0.006
   0.27500000  0.17500000  0.12500000       0.006
   0.32500000  0.17500000  0.12500000       0.006
   0.37500000  0.17500000  0.12500000       0.006
   0.42500000  0.17500000  0.12500000       0.006
   0.47500000  0.17500000  0.12500000       0.006
   0.22500000  0.22500000  0.12500000       0.003
   0.27500000  0.22500000  0.12500000       0.006
   0.32500000  0.22500000  0.12500000       0.006
   0.37500000  0.22500000  0.12500000       0.006
   0.42500000  0.22500000  0.12500000       0.006
   0.47500000  0.22500000  0.12500000       0.006
   0.27500000  0.27500000  0.12500000       0.003
   0.32500000  0.27500000  0.12500000       0.006
   0.37500000  0.27500000  0.12500000       0.006
   0.42500000  0.27500000  0.12500000       0.006
   0.47500000  0.27500000  0.12500000       0.006
   0.32500000  0.32500000  0.12500000       0.003
   0.37500000  0.32500000  0.12500000       0.006
   0.42500000  0.32500000  0.12500000       0.006
   0.47500000  0.32500000  0.12500000       0.006
   0.37500000  0.37500000  0.12500000       0.003
   0.42500000  0.37500000  0.12500000       0.006
   0.47500000  0.37500000  0.12500000       0.006
   0.42500000  0.42500000  0.12500000       0.003
   0.47500000  0.42500000  0.12500000       0.006
   0.47500000  0.47500000  0.12500000       0.003
   0.17500000  0.17500000  0.17500000       0.001
   0.22500000  0.17500000  0.17500000       0.003
   0.27500000  0.17500000  0.17500000       0.003
   0.32500000  0.17500000  0.17500000       0.003
   0.37500000  0.17500000  0.17500000       0.003
   0.42500000  0.17500000  0.17500000       0.003
   0.47500000  0.17500000  0.17500000       0.003
   0.22500000  0.22500000  0.17500000       0.003
   0.27500000  0.22500000  0.17500000       0.006
   0.32500000  0.22500000  0.17500000       0.006
   0.37500000  0.22500000  0.17500000       0.006
   0.42500000  0.22500000  0.17500000       0.006
   0.47500000  0.22500000  0.17500000       0.006
   0.27500000  0.27500000  0.17500000       0.003
   0.32500000  0.27500000  0.17500000       0.006
   0.37500000  0.27500000  0.17500000       0.006
   0.42500000  0.27500000  0.17500000       0.006
   0.47500000  0.27500000  0.17500000       0.006
   0.32500000  0.32500000  0.17500000       0.003
   0.37500000  0.32500000  0.17500000       0.006
   0.42500000  0.32500000  0.17500000       0.006
   0.47500000  0.32500000  0.17500000       0.006
   0.37500000  0.37500000  0.17500000       0.003
   0.42500000  0.37500000  0.17500000       0.006
   0.47500000  0.37500000  0.17500000       0.006
   0.42500000  0.42500000  0.17500000       0.003
   0.47500000  0.42500000  0.17500000       0.006
   0.47500000  0.47500000  0.17500000       0.003
   0.22500000  0.22500000  0.22500000       0.001
   0.27500000  0.22500000  0.22500000       0.003
   0.32500000  0.22500000  0.22500000       0.003
   0.37500000  0.22500000  0.22500000       0.003
   0.42500000  0.22500000  0.22500000       0.003
   0.47500000  0.22500000  0.22500000       0.003
   0.27500000  0.27500000  0.22500000       0.003
   0.32500000  0.27500000  0.22500000       0.006
   0.37500000  0.27500000  0.22500000       0.006
   0.42500000  0.27500000  0.22500000       0.006
   0.47500000  0.27500000  0.22500000       0.006
   0.32500000  0.32500000  0.22500000       0.003
   0.37500000  0.32500000  0.22500000       0.006
   0.42500000  0.32500000  0.22500000       0.006
   0.47500000  0.32500000  0.22500000       0.006
   0.37500000  0.37500000  0.22500000       0.003
   0.42500000  0.37500000  0.22500000       0.006
   0.47500000  0.37500000  0.22500000       0.006
   0.42500000  0.42500000  0.22500000       0.003
   0.47500000  0.42500000  0.22500000       0.006
   0.47500000  0.47500000  0.22500000       0.003
   0.27500000  0.27500000  0.27500000       0.001
   0.32500000  0.27500000  0.27500000       0.003
   0.37500000  0.27500000  0.27500000       0.003
   0.42500000  0.27500000  0.27500000       0.003
   0.47500000  0.27500000  0.27500000       0.003
   0.32500000  0.32500000  0.27500000       0.003
   0.37500000  0.32500000  0.27500000       0.006
   0.42500000  0.32500000  0.27500000       0.006
   0.47500000  0.32500000  0.27500000       0.006
   0.37500000  0.37500000  0.27500000       0.003
   0.42500000  0.37500000  0.27500000       0.006
   0.47500000  0.37500000  0.27500000       0.006
   0.42500000  0.42500000  0.27500000       0.003
   0.47500000  0.42500000  0.27500000       0.006
   0.47500000  0.47500000  0.27500000       0.003
   0.32500000  0.32500000  0.32500000       0.001
   0.37500000  0.32500000  0.32500000       0.003
   0.42500000  0.32500000  0.32500000       0.003
   0.47500000  0.32500000  0.32500000       0.003
   0.37500000  0.37500000  0.32500000       0.003
   0.42500000  0.37500000  0.32500000       0.006
   0.47500000  0.37500000  0.32500000       0.006
   0.42500000  0.42500000  0.32500000       0.003
   0.47500000  0.42500000  0.32500000       0.006
   0.47500000  0.47500000  0.32500000       0.003
   0.37500000  0.37500000  0.37500000       0.001
   0.42500000  0.37500000  0.37500000       0.003
   0.47500000  0.37500000  0.37500000       0.003
   0.42500000  0.42500000  0.37500000       0.003
   0.47500000  0.42500000  0.37500000       0.006
   0.47500000  0.47500000  0.37500000       0.003
   0.42500000  0.42500000  0.42500000       0.001
   0.47500000  0.42500000  0.42500000       0.003
   0.47500000  0.47500000  0.42500000       0.003
   0.47500000  0.47500000  0.47500000       0.001
 
 position of ions in fractional coordinates (direct lattice) 
   0.00000000  0.00000000  0.00000000
   0.00000000  0.50000000  0.50000000
   0.50000000  0.00000000  0.50000000
   0.50000000  0.50000000  0.00000000
 
 position of ions in cartesian coordinates  (Angst):
   0.00000000  0.00000000  0.00000000
  -0.00000000  2.01946485  2.01946485
   2.01946485  0.00000000  2.01946485
   2.01946485  2.01946485  0.00000000
 


--------------------------------------------------------------------------------------------------------


 k-point  1 :   0.0250 0.0250 0.0250  plane waves:    1210
 k-point  2 :   0.0750 0.0250 0.0250  plane waves:    1211
 k-point  3 :   0.1250 0.0250 0.0250  plane waves:    1209
 k-point  4 :   0.1750 0.0250 0.0250  plane waves:    1207
 k-point  5 :   0.2250 0.0250 0.0250  plane waves:    1205
 k-point  6 :   0.2750 0.0250 0.0250  plane waves:    1209
 k-point  7 :   0.3250 0.0250 0.0250  plane waves:    1202
 k-point  8 :   0.3750 0.0250 0.0250  plane waves:    1200
 k-point  9 :   0.4250 0.0250 0.0250  plane waves:    1200
 k-point 10 :   0.4750 0.0250 0.0250  plane waves:    1202
 k-point 11 :   0.0750 0.0750 0.0250  plane waves:    1210
 k-point 12 :   0.1250 0.0750 0.0250  plane waves:    1213
 k-point 13 :   0.1750 0.0750 0.0250  plane waves:    1208
 k-point 14 :   0.2250 0.0750 0.0250  plane waves:    1206
 k-point 15 :   0.2750 0.0750 0.0250  plane waves:    1201
 k-point 16 :   0.3250 0.0750 0.0250  plane waves:    1201
 k-point 17 :   0.3750 0.0750 0.0250  plane waves:    1197
 k-point 18 :   0.4250 0.0750 0.0250  plane waves:    1197
 k-point 19 :   0.4750 0.0750 0.0250  plane waves:    1197
 k-point 20 :   0.1250 0.1250 0.0250  plane waves:    1215
 k-point 21 :   0.1750 0.1250 0.0250  plane waves:    1209
 k-point 22 :   0.2250 0.1250 0.0250  plane waves:    1206
 k-point 23 :   0.2750 0.1250 0.0250  plane waves:    1200
 k-point 24 :   0.3250 0.1250 0.0250  plane waves:    1198
 k-point 25 :   0.3750 0.1250 0.0250  plane waves:    1198
 k-point 26 :   0.4250 0.1250 0.0250  plane waves:    1194
 k-point 27 :   0.4750 0.1250 0.0250  plane waves:    1194
 k-point 28 :   0.1750 0.1750 0.0250  plane waves:    1207
 k-point 29 :   0.2250 0.1750 0.0250  plane waves:    1203
 k-point 30 :   0.2750 0.1750 0.0250  plane waves:    1201
 k-point 31 :   0.3250 0.1750 0.0250  plane waves:    1200
 k-point 32 :   0.3750 0.1750 0.0250  plane waves:    1200
 k-point 33 :   0.4250 0.1750 0.0250  plane waves:    1198
 k-point 34 :   0.4750 0.1750 0.0250  plane waves:    1199
 k-point 35 :   0.2250 0.2250 0.0250  plane waves:    1199
 k-point 36 :   0.2750 0.2250 0.0250  plane waves:    1196
 k-point 37 :   0.3250 0.2250 0.0250  plane waves:    1195
 k-point 38 :   0.3750 0.2250 0.0250  plane waves:    1203
 k-point 39 :   0.4250 0.2250 0.0250  plane waves:    1198
 k-point 40 :   0.4750 0.2250 0.0250  plane waves:    1194
 k-point 41 :   0.2750 0.2750 0.0250  plane waves:    1191
 k-point 42 :   0.3250 0.2750 0.0250  plane waves:    1191
 k-point 43 :   0.3750 0.2750 0.0250  plane waves:    1191
 k-point 44 :   0.4250 0.2750 0.0250  plane waves:    1196
 k-point 45 :   0.4750 0.2750 0.0250  plane waves:    1193
 k-point 46 :   0.3250 0.3250 0.0250  plane waves:    1191
 k-point 47 :   0.3750 0.3250 0.0250  plane waves:    1192
 k-point 48 :   0.4250 0.3250 0.0250  plane waves:    1190
 k-point 49 :   0.4750 0.3250 0.0250  plane waves:    1194
 k-point 50 :   0.3750 0.3750 0.0250  plane waves:    1190
 k-point 51 :   0.4250 0.3750 0.0250  plane waves:    1197
 k-point 52 :   0.4750 0.3750 0.0250  plane waves:    1197
 k-point 53 :   0.4250 0.4250 0.0250  plane waves:    1198
 k-point 54 :   0.4750 0.4250 0.0250  plane waves:    1199
 k-point 55 :   0.4750 0.4750 0.0250  plane waves:    1200
 k-point 56 :   0.0750 0.0750 0.0750  plane waves:    1213
 k-point 57 :   0.1250 0.0750 0.0750  plane waves:    1212
 k-point 58 :   0.1750 0.0750 0.0750  plane waves:    1211
 k-point 59 :   0.2250 0.0750 0.0750  plane waves:    1206
 k-point 60 :   0.2750 0.0750 0.0750  plane waves:    1200
 k-point 61 :   0.3250 0.0750 0.0750  plane waves:    1196
 k-point 62 :   0.3750 0.0750 0.0750  plane waves:    1196
 k-point 63 :   0.4250 0.0750 0.0750  plane waves:    1198
 k-point 64 :   0.4750 0.0750 0.0750  plane waves:    1194
 k-point 65 :   0.1250 0.1250 0.0750  plane waves:    1211
 k-point 66 :   0.1750 0.1250 0.0750  plane waves:    1207
 k-point 67 :   0.2250 0.1250 0.0750  plane waves:    1206
 k-point 68 :   0.2750 0.1250 0.0750  plane waves:    1202
 k-point 69 :   0.3250 0.1250 0.0750  plane waves:    1199
 k-point 70 :   0.3750 0.1250 0.0750  plane waves:    1196
 k-point 71 :   0.4250 0.1250 0.0750  plane waves:    1196
 k-point 72 :   0.4750 0.1250 0.0750  plane waves:    1191
 k-point 73 :   0.1750 0.1750 0.0750  plane waves:    1208
 k-point 74 :   0.2250 0.1750 0.0750  plane waves:    1205
 k-point 75 :   0.2750 0.1750 0.0750  plane waves:    1200
 k-point 76 :   0.3250 0.1750 0.0750  plane waves:    1197
 k-point 77 :   0.3750 0.1750 0.0750  plane waves:    1197
 k-point 78 :   0.4250 0.1750 0.0750  plane waves:    1193
 k-point 79 :   0.4750 0.1750 0.0750  plane waves:    1192
 k-point 80 :   0.2250 0.2250 0.0750  plane waves:    1201
 k-point 81 :   0.2750 0.2250 0.0750  plane waves:    1200
 k-point 82 :   0.3250 0.2250 0.0750  plane waves:    1198
 k-point 83 :   0.3750 0.2250 0.0750  plane waves:    1199
 k-point 84 :   0.4250 0.2250 0.0750  plane waves:    1194
 k-point 85 :   0.4750 0.2250 0.0750  plane waves:    1195
 k-point 86 :   0.2750 0.2750 0.0750  plane waves:    1200
 k-point 87 :   0.3250 0.2750 0.0750  plane waves:    1196
 k-point 88 :   0.3750 0.2750 0.0750  plane waves:    1198
 k-point 89 :   0.4250 0.2750 0.0750  plane waves:    1197
 k-point 90 :   0.4750 0.2750 0.0750  plane waves:    1196
 k-point 91 :   0.3250 0.3250 0.0750  plane waves:    1194
 k-point 92 :   0.3750 0.3250 0.0750  plane waves:    1189
 k-point 93 :   0.4250 0.3250 0.0750  plane waves:    1197
 k-point 94 :   0.4750 0.3250 0.0750  plane waves:    1195
 k-point 95 :   0.3750 0.3750 0.0750  plane waves:    1192
 k-point 96 :   0.4250 0.3750 0.0750  plane waves:    1195
 k-point 97 :   0.4750 0.3750 0.0750  plane waves:    1194
 k-point 98 :   0.4250 0.4250 0.0750  plane waves:    1195
 k-point 99 :   0.4750 0.4250 0.0750  plane waves:    1195
 k-point ** :   0.4750 0.4750 0.0750  plane waves:    1196
 k-point ** :   0.1250 0.1250 0.1250  plane waves:    1216
 k-point ** :   0.1750 0.1250 0.1250  plane waves:    1205
 k-point ** :   0.2250 0.1250 0.1250  plane waves:    1206
 k-point ** :   0.2750 0.1250 0.1250  plane waves:    1202
 k-point ** :   0.3250 0.1250 0.1250  plane waves:    1196
 k-point ** :   0.3750 0.1250 0.1250  plane waves:    1193
 k-point ** :   0.4250 0.1250 0.1250  plane waves:    1193
 k-point ** :   0.4750 0.1250 0.1250  plane waves:    1194
 k-point ** :   0.1750 0.1750 0.1250  plane waves:    1211
 k-point ** :   0.2250 0.1750 0.1250  plane waves:    1206
 k-point ** :   0.2750 0.1750 0.1250  plane waves:    1201
 k-point ** :   0.3250 0.1750 0.1250  plane waves:    1196
 k-point ** :   0.3750 0.1750 0.1250  plane waves:    1194
 k-point ** :   0.4250 0.1750 0.1250  plane waves:    1194
 k-point ** :   0.4750 0.1750 0.1250  plane waves:    1192
 k-point ** :   0.2250 0.2250 0.1250  plane waves:    1208
 k-point ** :   0.2750 0.2250 0.1250  plane waves:    1204
 k-point ** :   0.3250 0.2250 0.1250  plane waves:    1200
 k-point ** :   0.3750 0.2250 0.1250  plane waves:    1195
 k-point ** :   0.4250 0.2250 0.1250  plane waves:    1191
 k-point ** :   0.4750 0.2250 0.1250  plane waves:    1192
 k-point ** :   0.2750 0.2750 0.1250  plane waves:    1201
 k-point ** :   0.3250 0.2750 0.1250  plane waves:    1199
 k-point ** :   0.3750 0.2750 0.1250  plane waves:    1198
 k-point ** :   0.4250 0.2750 0.1250  plane waves:    1200
 k-point ** :   0.4750 0.2750 0.1250  plane waves:    1195
 k-point ** :   0.3250 0.3250 0.1250  plane waves:    1196
 k-point ** :   0.3750 0.3250 0.1250  plane waves:    1196
 k-point ** :   0.4250 0.3250 0.1250  plane waves:    1197
 k-point ** :   0.4750 0.3250 0.1250  plane waves:    1194
 k-point ** :   0.3750 0.3750 0.1250  plane waves:    1202
 k-point ** :   0.4250 0.3750 0.1250  plane waves:    1191
 k-point ** :   0.4750 0.3750 0.1250  plane waves:    1194
 k-point ** :   0.4250 0.4250 0.1250  plane waves:    1191
 k-point ** :   0.4750 0.4250 0.1250  plane waves:    1195
 k-point ** :   0.4750 0.4750 0.1250  plane waves:    1194
 k-point ** :   0.1750 0.1750 0.1750  plane waves:    1207
 k-point ** :   0.2250 0.1750 0.1750  plane waves:    1203
 k-point ** :   0.2750 0.1750 0.1750  plane waves:    1201
 k-point ** :   0.3250 0.1750 0.1750  plane waves:    1199
 k-point ** :   0.3750 0.1750 0.1750  plane waves:    1194
 k-point ** :   0.4250 0.1750 0.1750  plane waves:    1191
 k-point ** :   0.4750 0.1750 0.1750  plane waves:    1191
 k-point ** :   0.2250 0.2250 0.1750  plane waves:    1203
 k-point ** :   0.2750 0.2250 0.1750  plane waves:    1202
 k-point ** :   0.3250 0.2250 0.1750  plane waves:    1195
 k-point ** :   0.3750 0.2250 0.1750  plane waves:    1191
 k-point ** :   0.4250 0.2250 0.1750  plane waves:    1190
 k-point ** :   0.4750 0.2250 0.1750  plane waves:    1191
 k-point ** :   0.2750 0.2750 0.1750  plane waves:    1201
 k-point ** :   0.3250 0.2750 0.1750  plane waves:    1196
 k-point ** :   0.3750 0.2750 0.1750  plane waves:    1195
 k-point ** :   0.4250 0.2750 0.1750  plane waves:    1195
 k-point ** :   0.4750 0.2750 0.1750  plane waves:    1194
 k-point ** :   0.3250 0.3250 0.1750  plane waves:    1197
 k-point ** :   0.3750 0.3250 0.1750  plane waves:    1196
 k-point ** :   0.4250 0.3250 0.1750  plane waves:    1196
 k-point ** :   0.4750 0.3250 0.1750  plane waves:    1197
 k-point ** :   0.3750 0.3750 0.1750  plane waves:    1192
 k-point ** :   0.4250 0.3750 0.1750  plane waves:    1197
 k-point ** :   0.4750 0.3750 0.1750  plane waves:    1195
 k-point ** :   0.4250 0.4250 0.1750  plane waves:    1195
 k-point ** :   0.4750 0.4250 0.1750  plane waves:    1193
 k-point ** :   0.4750 0.4750 0.1750  plane waves:    1190
 k-point ** :   0.2250 0.2250 0.2250  plane waves:    1196
 k-point ** :   0.2750 0.2250 0.2250  plane waves:    1200
 k-point ** :   0.3250 0.2250 0.2250  plane waves:    1199
 k-point ** :   0.3750 0.2250 0.2250  plane waves:    1188
 k-point ** :   0.4250 0.2250 0.2250  plane waves:    1191
 k-point ** :   0.4750 0.2250 0.2250  plane waves:    1195
 k-point ** :   0.2750 0.2750 0.2250  plane waves:    1197
 k-point ** :   0.3250 0.2750 0.2250  plane waves:    1195
 k-point ** :   0.3750 0.2750 0.2250  plane waves:    1195
 k-point ** :   0.4250 0.2750 0.2250  plane waves:    1198
 k-point ** :   0.4750 0.2750 0.2250  plane waves:    1196
 k-point ** :   0.3250 0.3250 0.2250  plane waves:    1203
 k-point ** :   0.3750 0.3250 0.2250  plane waves:    1198
 k-point ** :   0.4250 0.3250 0.2250  plane waves:    1197
 k-point ** :   0.4750 0.3250 0.2250  plane waves:    1193
 k-point ** :   0.3750 0.3750 0.2250  plane waves:    1194
 k-point ** :   0.4250 0.3750 0.2250  plane waves:    1195
 k-point ** :   0.4750 0.3750 0.2250  plane waves:    1193
 k-point ** :   0.4250 0.4250 0.2250  plane waves:    1191
 k-point ** :   0.4750 0.4250 0.2250  plane waves:    1191
 k-point ** :   0.4750 0.4750 0.2250  plane waves:    1194
 k-point ** :   0.2750 0.2750 0.2750  plane waves:    1196
 k-point ** :   0.3250 0.2750 0.2750  plane waves:    1201
 k-point ** :   0.3750 0.2750 0.2750  plane waves:    1195
 k-point ** :   0.4250 0.2750 0.2750  plane waves:    1190
 k-point ** :   0.4750 0.2750 0.2750  plane waves:    1197
 k-point ** :   0.3250 0.3250 0.2750  plane waves:    1197
 k-point ** :   0.3750 0.3250 0.2750  plane waves:    1200
 k-point ** :   0.4250 0.3250 0.2750  plane waves:    1193
 k-point ** :   0.4750 0.3250 0.2750  plane waves:    1194
 k-point ** :   0.3750 0.3750 0.2750  plane waves:    1196
 k-point ** :   0.4250 0.3750 0.2750  plane waves:    1190
 k-point ** :   0.4750 0.3750 0.2750  plane waves:    1191
 k-point ** :   0.4250 0.4250 0.2750  plane waves:    1183
 k-point ** :   0.4750 0.4250 0.2750  plane waves:    1189
 k-point ** :   0.4750 0.4750 0.2750  plane waves:    1193
 k-point ** :   0.3250 0.3250 0.3250  plane waves:    1205
 k-point ** :   0.3750 0.3250 0.3250  plane waves:    1197
 k-point ** :   0.4250 0.3250 0.3250  plane waves:    1191
 k-point ** :   0.4750 0.3250 0.3250  plane waves:    1189
 k-point ** :   0.3750 0.3750 0.3250  plane waves:    1191
 k-point ** :   0.4250 0.3750 0.3250  plane waves:    1189
 k-point ** :   0.4750 0.3750 0.3250  plane waves:    1188
 k-point ** :   0.4250 0.4250 0.3250  plane waves:    1191
 k-point ** :   0.4750 0.4250 0.3250  plane waves:    1189
 k-point ** :   0.4750 0.4750 0.3250  plane waves:    1192
 k-point ** :   0.3750 0.3750 0.3750  plane waves:    1190
 k-point ** :   0.4250 0.3750 0.3750  plane waves:    1190
[...]
     11      16.2517      0.00000
     12      16.6287      0.00000
     13      17.9572      0.00000
     14      18.0465      0.00000
     15      18.0465      0.00000
     16      18.7364      0.00000
     17      19.7240      0.00000
     18      20.3427      0.00000
     19      20.3427      0.00000
     20      20.3838      0.00000
     21      20.6977      0.00000
     22      20.9057      0.00000
     23      20.9057      0.00000
     24      21.4820      0.00000
     25      23.6864      0.00000
     26      24.2401      0.00000
     27      24.2401      0.00000
     28      24.4173      0.00000
     29      25.6021      0.00000
     30      25.9143      0.00000
     31      25.9143      0.00000
     32      26.2226      0.00000

 k-point   211 :       0.3750    0.3750    0.3750
  band No.  band energies     occupation 
      1       0.6500      2.00000
      2       2.8393      2.00000
      3       2.8393      2.00000
      4       2.8393      2.00000
      5       5.0163      2.00000
      6       5.0163      2.00000
      7       5.0163      2.00000
      8       7.1509      2.00000
      9      15.6215      0.00000
     10      15.6215      0.00000
     11      15.6215      0.00000
     12      16.9021      0.00000
     13      16.9021      0.00000
     14      16.9021      0.00000
     15      18.6777      0.00000
     16      18.6777      0.00000
     17      18.6777      0.00000
     18      18.8489      0.00000
     19      18.8489      0.00000
     20      20.8001      0.00000
     21      20.8001      0.00000
     22      22.4621      0.00000
     23      22.7643      0.00000
     24      22.7643      0.00000
     25      22.7643      0.00000
     26      24.7356      0.00000
     27      25.5602      0.00000
     28      25.5602      0.00000
     29      25.5602      0.00000
     30      26.7238      0.00000
     31      26.7238      0.00000
     32      26.7238      0.00000

 k-point   212 :       0.4250    0.3750    0.3750
  band No.  band energies     occupation 
      1       1.0031      2.00000
      2       2.3182      2.00000
      3       3.1838      2.00000
      4       3.1838      2.00000
      5       4.5041      2.00000
      6       4.5041      2.00000
      7       5.3586      2.00000
      8       6.6408      2.00000
      9      15.9261      0.00000
     10      15.9261      0.00000
     11      16.7218      0.00000
     12      16.9127      0.00000
     13      16.9127      0.00000
     14      17.2136      0.00000
     15      18.3821      0.00000
     16      18.9251      0.00000
     17      19.2338      0.00000
     18      19.2750      0.00000
     19      19.2750      0.00000
     20      19.9371      0.00000
     21      21.1134      0.00000
     22      22.1053      0.00000
     23      22.1053      0.00000
     24      22.2928      0.00000
     25      22.7249      0.00000
     26      24.6399      0.00000
     27      25.0765      0.00000
     28      25.3434      0.00000
     29      25.3434      0.00000
     30      25.6611      0.00000
     31      26.2939      0.00000
     32      26.2939      0.00000

 k-point   213 :       0.4750    0.3750    0.3750
  band No.  band energies     occupation 
      1       1.3992      2.00000
      2       1.8378      2.00000
      3       3.5562      2.00000
      4       3.5562      2.00000
      5       4.0478      2.00000
      6       4.0478      2.00000
      7       5.7440      2.00000
      8       6.1717      2.00000
      9      16.2331      0.00000
     10      16.2331      0.00000
     11      16.6564      0.00000
     12      16.6564      0.00000
     13      17.5642      0.00000
     14      17.8276      0.00000
     15      17.9538      0.00000
     16      18.9145      0.00000
     17      19.1506      0.00000
     18      19.2937      0.00000
     19      20.1902      0.00000
     20      20.1902      0.00000
     21      21.2111      0.00000
     22      21.2111      0.00000
     23      21.4673      0.00000
     24      21.8603      0.00000
     25      23.3815      0.00000
     26      24.2722      0.00000
     27      24.7657      0.00000
     28      25.0551      0.00000
     29      25.3429      0.00000
     30      25.3429      0.00000
     31      26.0203      0.00000
     32      26.0203      0.00000

 k-point   214 :       0.4250    0.4250    0.3750
  band No.  band energies     occupation 
      1       1.3553      2.00000
      2       2.6662      2.00000
      3       2.6662      2.00000
      4       3.5134      2.00000
      5       4.0045      2.00000
      6       4.8450      2.00000
      7       4.8450      2.00000
      8       6.1295      2.00000
      9      16.2396      0.00000
     10      16.9933      0.00000
     11      16.9933      0.00000
     12      17.2389      0.00000
     13      17.2389      0.00000
     14      17.5275      0.00000
     15      18.2890      0.00000
     16      19.2652      0.00000
     17      19.4751      0.00000
     18      19.4915      0.00000
     19      19.4915      0.00000
     20      19.8733      0.00000
     21      20.7307      0.00000
     22      21.6427      0.00000
     23      21.6427      0.00000
     24      21.8316      0.00000
     25      22.7557      0.00000
     26      24.4531      0.00000
     27      24.7813      0.00000
     28      24.8196      0.00000
     29      24.8196      0.00000
     30      25.2893      0.00000
     31      25.2893      0.00000
     32      25.8097      0.00000

 k-point   215 :       0.4750    0.4250    0.3750
  band No.  band energies     occupation 
      1       1.7504      2.00000
      2       2.1876      2.00000
      3       3.0548      2.00000
      4       3.4712      2.00000
      5       3.9605      2.00000
      6       4.3747      2.00000
      7       5.2308      2.00000
      8       5.6592      2.00000
      9      16.5714      0.00000
     10      16.9007      0.00000
     11      17.3443      0.00000
     12      17.5506      0.00000
     13      17.5759      0.00000
     14      17.9253      0.00000
     15      18.1001      0.00000
     16      19.1099      0.00000
     17      19.6596      0.00000
     18      19.6930      0.00000
     19      19.8624      0.00000
     20      20.3334      0.00000
     21      20.7903      0.00000
     22      20.8787      0.00000
     23      21.2146      0.00000
     24      21.2275      0.00000
     25      23.1939      0.00000
     26      23.9751      0.00000
     27      24.5316      0.00000
     28      24.5751      0.00000
     29      24.6482      0.00000
     30      24.7856      0.00000
     31      25.2434      0.00000
     32      25.4543      0.00000

 k-point   216 :       0.4750    0.4750    0.3750
  band No.  band energies     occupation 
      1       2.1441      2.00000
      2       2.5796      2.00000
      3       2.5796      2.00000
      4       3.0117      2.00000
      5       4.3316      2.00000
      6       4.7592      2.00000
      7       4.7592      2.00000
      8       5.1881      2.00000
      9      16.9100      0.00000
     10      17.2546      0.00000
     11      17.2546      0.00000
     12      17.6095      0.00000
     13      18.2308      0.00000
     14      18.3109      0.00000
     15      18.3109      0.00000
     16      19.0104      0.00000
     17      19.8563      0.00000
     18      20.1886      0.00000
     19      20.3425      0.00000
     20      20.3425      0.00000
     21      20.3831      0.00000
     22      20.4882      0.00000
     23      20.4882      0.00000
     24      20.9723      0.00000
     25      23.3112      0.00000
     26      23.8394      0.00000
     27      23.8394      0.00000
     28      24.0101      0.00000
     29      24.5933      0.00000
     30      24.8373      0.00000
     31      24.8373      0.00000
     32      25.0791      0.00000

 k-point   217 :       0.4250    0.4250    0.4250
  band No.  band energies     occupation 
      1       1.7066      2.00000
      2       3.0115      2.00000
      3       3.0115      2.00000
      4       3.0115      2.00000
      5       4.3319      2.00000
      6       4.3319      2.00000
      7       4.3319      2.00000
      8       5.6169      2.00000
      9      17.3104      0.00000
     10      17.3104      0.00000
     11      17.3104      0.00000
     12      17.8399      0.00000
     13      17.8399      0.00000
     14      17.8399      0.00000
     15      19.0106      0.00000
     16      19.0106      0.00000
     17      19.4446      0.00000
     18      19.4446      0.00000
     19      19.4446      0.00000
     20      20.1830      0.00000
     21      20.1830      0.00000
     22      21.3606      0.00000
     23      21.3606      0.00000
     24      21.3606      0.00000
     25      22.6815      0.00000
     26      24.0601      0.00000
     27      24.3807      0.00000
     28      24.3807      0.00000
     29      24.3807      0.00000
     30      24.7220      0.00000
     31      24.7220      0.00000
     32      24.7220      0.00000

 k-point   218 :       0.4750    0.4250    0.4250
  band No.  band energies     occupation 
      1       2.1005      2.00000
      2       2.5361      2.00000
      3       3.3857      2.00000
      4       3.3857      2.00000
      5       3.8737      2.00000
      6       3.8737      2.00000
      7       4.7166      2.00000
      8       5.1456      2.00000
      9      17.6057      0.00000
     10      17.6057      0.00000
     11      17.8859      0.00000
     12      17.8859      0.00000
     13      18.1911      0.00000
     14      18.3644      0.00000
     15      18.5815      0.00000
     16      19.3526      0.00000
     17      19.4372      0.00000
     18      19.5404      0.00000
     19      19.9833      0.00000
     20      19.9833      0.00000
     21      20.5357      0.00000
     22      20.7616      0.00000
     23      20.7616      0.00000
     24      20.9282      0.00000
     25      22.9817      0.00000
     26      23.6698      0.00000
     27      24.0032      0.00000
     28      24.1746      0.00000
     29      24.1850      0.00000
     30      24.1850      0.00000
     31      24.4250      0.00000
     32      24.4250      0.00000

 k-point   219 :       0.4750    0.4750    0.4250
  band No.  band energies     occupation 
      1       2.4927      2.00000
      2       2.9252      2.00000
      3       2.9252      2.00000
      4       3.3431      2.00000
      5       3.8300      2.00000
      6       4.2456      2.00000
      7       4.2456      2.00000
      8       4.6737      2.00000
      9      17.9287      0.00000
     10      18.2022      0.00000
     11      18.2022      0.00000
     12      18.5283      0.00000
     13      18.5435      0.00000
     14      18.6016      0.00000
     15      18.6016      0.00000
     16      19.3229      0.00000
     17      19.7198      0.00000
     18      19.9044      0.00000
     19      19.9699      0.00000
     20      19.9699      0.00000
     21      20.1861      0.00000
     22      20.3743      0.00000
     23      20.3743      0.00000
     24      20.5013      0.00000
     25      23.0523      0.00000
     26      23.5260      0.00000
     27      23.5260      0.00000
     28      23.6813      0.00000
     29      23.8532      0.00000
     30      23.9741      0.00000
     31      23.9741      0.00000
     32      24.0809      0.00000

 k-point   220 :       0.4750    0.4750    0.4750
  band No.  band energies     occupation 
      1       2.8820      2.00000
      2       3.3003      2.00000
      3       3.3003      2.00000
      4       3.3003      2.00000
      5       3.7864      2.00000
      6       3.7864      2.00000
      7       3.7864      2.00000
      8       4.2025      2.00000
      9      18.8829      0.00000
     10      18.8829      0.00000
     11      18.8829      0.00000
     12      18.8954      0.00000
     13      18.8954      0.00000
     14      18.8954      0.00000
     15      19.2858      0.00000
     16      19.2858      0.00000
     17      19.6789      0.00000
     18      19.6789      0.00000
     19      19.7543      0.00000
     20      19.7543      0.00000
     21      19.7543      0.00000
     22      20.0700      0.00000
     23      20.0700      0.00000
     24      20.0700      0.00000
     25      23.0117      0.00000
     26      23.3413      0.00000
     27      23.3413      0.00000
     28      23.3413      0.00000
     29      23.4884      0.00000
     30      23.4884      0.00000
     31      23.4884      0.00000
     32      23.4987      0.00000


--------------------------------------------------------------------------------------------------------


 soft charge-density along one line, spin component           1
         0         1         2         3         4         5         6         7         8         9
 total charge-density along one line
 
 pseudopotential strength for first ion, spin component:           1
  8.443  14.390   0.000   0.000   0.000   0.000   0.000   0.000
 14.390  24.525   0.000   0.000   0.000   0.000   0.000   0.000
  0.000   0.000   1.988   0.000  -0.000   5.731   0.000  -0.000
  0.000   0.000   0.000   1.988   0.000   0.000   5.731   0.000
  0.000   0.000  -0.000   0.000   1.988  -0.000   0.000   5.731
  0.000   0.000   5.731   0.000  -0.000  16.436   0.000  -0.000
  0.000   0.000   0.000   5.731   0.000   0.000  16.436   0.000
  0.000   0.000  -0.000   0.000   5.731  -0.000   0.000  16.436
 total augmentation occupancy for first ion, spin component:           1
  3.343  -0.821   0.000   0.000   0.000   0.000   0.000   0.000
 -0.821   0.270   0.000  -0.000  -0.000   0.000  -0.000   0.000
  0.000   0.000   1.112   0.000  -0.000  -0.072  -0.000   0.000
  0.000  -0.000   0.000   1.112   0.000  -0.000  -0.072  -0.000
 -0.000  -0.000  -0.000   0.000   1.112   0.000  -0.000  -0.072
  0.000   0.000  -0.072  -0.000   0.000   0.005   0.000  -0.000
  0.000   0.000  -0.000  -0.072  -0.000   0.000   0.005   0.000
  0.000   0.000   0.000  -0.000  -0.072  -0.000   0.000   0.005


------------------------ aborting loop because EDIFF is reached ----------------------------------------


    CHARGE:  cpu time    0.1131: real time    0.1181
    FORLOC:  cpu time    0.0003: real time    0.0004
    FORNL :  cpu time    1.1100: real time    1.1401
    STRESS:  cpu time    3.3004: real time    3.3988
    FORCOR:  cpu time    0.0050: real time    0.0050
    FORHAR:  cpu time    0.0014: real time    0.0014
    MIXING:  cpu time    0.0004: real time    0.0004
    OFIELD:  cpu time    0.0001: real time    0.0001

  FORCE on cell =-STRESS in cart. coord.  units (eV):
  Direction    XX          YY          ZZ          XY          YZ          ZX
  --------------------------------------------------------------------------------------
  Alpha Z    -0.81566    -0.81566    -0.81566
  Ewald     -98.07707   -98.07707   -98.07707    -0.00000     0.00000     0.00000
  Hartree     0.13975     0.13975     0.13975    -0.00000    -0.00000    -0.00000
  E(xc)     -34.27883   -34.27883   -34.27883     0.00000    -0.00000    -0.00000
  Local       1.41750     1.41750     1.41750    -0.00000     0.00000     0.00000
  n-local    74.42759    75.27148    77.19913     0.27888     1.04553     0.44694
  augment    -4.12578    -4.12578    -4.12578     0.00000     0.00000     0.00000
  Kinetic    57.14541    59.40827    63.76808     1.53654    -8.47816    -1.78235
  Fock        0.00000     0.00000     0.00000     0.00000     0.00000     0.00000
  -------------------------------------------------------------------------------------
  Total      -0.00010    -0.00010    -0.00010    -0.00000    -0.00000    -0.00000
  in kB      -0.00233    -0.00233    -0.00233    -0.00000    -0.00000    -0.00000
  external pressure =       -0.00 kB  Pullay stress =        0.00 kB


 VOLUME and BASIS-vectors are now :
 -----------------------------------------------------------------------------
  energy-cutoff  :      400.00
  volume of cell :       65.89
      direct lattice vectors                 reciprocal lattice vectors
     4.038929693  0.000000000  0.000000000     0.247590346  0.000000000  0.000000000
    -0.000000000  4.038929693  0.000000000     0.000000000  0.247590346  0.000000000
     0.000000000  0.000000000  4.038929693    -0.000000000 -0.000000000  0.247590346

  length of vectors
     4.038929693  4.038929693  4.038929693     0.247590346  0.247590346  0.247590346


 FORCES acting on ions
    electron-ion (+dipol)            ewald-force                    non-local-force                 convergence-correction
 -----------------------------------------------------------------------------------------------
   -.400E-14 0.444E-15 0.172E-14   0.971E-15 -.831E-16 -.393E-15   0.225E-26 -.646E-26 -.291E-25   0.222E-14 -.187E-16 0.580E-15
   -.386E-14 -.490E-14 -.670E-14   0.973E-15 -.153E-15 0.282E-15   -.160E-25 0.194E-25 0.646E-26   0.219E-14 0.363E-16 -.601E-15
   -.642E-14 -.635E-15 -.417E-13   -.100E-14 0.127E-15 0.293E-15   -.197E-25 -.404E-26 0.258E-25   -.225E-14 -.260E-16 -.608E-15
   -.631E-14 -.102E-13 0.192E-13   -.100E-14 0.566E-16 -.374E-15   0.116E-25 0.226E-25 0.323E-26   -.221E-14 0.154E-16 0.582E-15
 -----------------------------------------------------------------------------------------------
   -.206E-13 -.153E-13 -.275E-13   -.599E-16 -.530E-16 -.192E-15   -.219E-25 0.315E-25 0.646E-26   -.457E-16 0.709E-17 -.472E-16
 
 
 POSITION                                       TOTAL-FORCE (eV/Angst)
 -----------------------------------------------------------------------------------
      0.00000      0.00000      0.00000         0.000000     -0.000000      0.000000
     -0.00000      2.01946      2.01946        -0.000000      0.000000      0.000000
      2.01946      0.00000      2.01946         0.000000      0.000000     -0.000000
      2.01946      2.01946      0.00000        -0.000000     -0.000000     -0.000000
 -----------------------------------------------------------------------------------
    total drift:                               -0.000000     -0.000000     -0.000000


--------------------------------------------------------------------------------------------------------



  FREE ENERGIE OF THE ION-ELECTRON SYSTEM (eV)
  ---------------------------------------------------
  free  energy   TOTEN  =       -14.98716911 eV

  energy  without entropy=      -14.98956099  energy(sigma->0) =      -14.98796641
 


--------------------------------------------------------------------------------------------------------


    POTLOK:  cpu time    0.0081: real time    0.0082


--------------------------------------------------------------------------------------------------------




--------------------------------------------------------------------------------------------------------


  
 reached required accuracy - stopping structural energy minimisation
     LOOP+:  cpu time   43.6358: real time   45.1127
    4ORBIT:  cpu time    0.0000: real time    0.0000

 total amount of memory used by VASP MPI-rank0    37166. kBytes
=======================================================================

   base      :      30000. kBytes
   nonlr-proj:       1257. kBytes
   fftplans  :        307. kBytes
   grid      :       1198. kBytes
   one-center:         12. kBytes
   wavefun   :       4392. kBytes
 
  
  
 General timing and accounting informations for this job:
 ========================================================
  
                  Total CPU time used (sec):       45.506
                            User time (sec):       44.311
                          System time (sec):        1.194
                         Elapsed time (sec):       53.286
  
                   Maximum memory used (kb):      141396.
                   Average memory used (kb):           0.
  
                          Minor page faults:        16858
                          Major page faults:         2111
                 Voluntary context switches:          879
