ITEM: TIMESTEP
0
ITEM: NUMBER OF ATOMS
4
ITEM: BOX BOUNDS xy xz yz pp pp pp
0.0000000000000000e+00 4.0904988758999998e+00 0.0000000000000000e+00
0.0000000000000000e+00 4.0499988870000001e+00 4.0499988899999999e-02
0.0000000000000000e+00 4.0497963820000002e+00 0.0000000000000000e+00
ITEM: ATOMS id type xs ys zs fx fy fz
1 1 0 0 0 -1.65279e-10 -4.97005e-17 1.71921e-11
4 1 0.5 0 0.5 1.65285e-10 -6.13218e-17 -1.71921e-11
3 1 0.5 0.5 0 -1.65257e-10 4.86012e-17 1.71921e-11
2 1 1 0.5 0.5 1.65251e-10 6.24229e-17 -1.71921e-11
ITEM: TIMESTEP
2
ITEM: NUMBER OF ATOMS
4
ITEM: BOX BOUNDS xy xz yz pp pp pp
0.0000000000000000e+00 4.0904988758999998e+00 0.0000000000000000e+00
0.0000000000000000e+00 4.0499988870000001e+00 4.0499988899999999e-02
0.0000000000000000e+00 4.0497963820000002e+00 0.0000000000000000e+00
ITEM: ATOMS id type xs ys zs fx fy fz
1 1 1 0 0 3.24393e-15 -3.86118e-16 3.10169e-15
4 1 0.5 0 0.5 7.70217e-15 -1.50126e-15 -2.68709e-15
3 1 0.5 0.5 0 5.05325e-15 3.44736e-16 1.03216e-15
2 1 1 0.5 0.5 -1.59976e-14 1.54264e-15 -1.44849e-15
