
4 atoms
1 atom types
   0.0000000000    4.0981101103 xlo xhi
   0.0000000000    4.0981101103 ylo yhi
   0.0000000000    4.0981101103 zlo zhi
   0.0000000000   -0.0000000000   -0.0000000000 xy xz yz

Atoms # atomic

     1      1    0.0000000000    0.0000000000    0.0000000000
     2      1    0.0000000000    2.0490550551    2.0490550551
     3      1    2.0490550551    2.0490550551    0.0000000000
     4      1    2.0490550551    0.0000000000    2.0490550551
