ITEM: TIMESTEP
0
ITEM: NUMBER OF ATOMS
4
ITEM: BOX BOUNDS xy xz yz pp pp pp
0.0000000000000000e+00 4.0981101103000004e+00 0.0000000000000000e+00
0.0000000000000000e+00 4.0981101103000004e+00 -0.0000000000000000e+00
0.0000000000000000e+00 4.0981101103000004e+00 -0.0000000000000000e+00
ITEM: ATOMS id type xs ys zs fx fy fz
1 1 0 0 0 -1.87592e-10 -1.87593e-10 -1.87593e-10
3 1 0.5 0.5 0 1.87592e-10 1.87593e-10 -1.87592e-10
2 1 0 0.5 0.5 -1.87592e-10 1.87592e-10 1.87593e-10
4 1 0.5 0 0.5 1.87592e-10 -1.87592e-10 1.87593e-10
ITEM: TIMESTEP
1
ITEM: NUMBER OF ATOMS
4
ITEM: BOX BOUNDS xy xz yz pp pp pp
0.0000000000000000e+00 4.0981101103000004e+00 0.0000000000000000e+00
0.0000000000000000e+00 4.0981101103000004e+00 -0.0000000000000000e+00
0.0000000000000000e+00 4.0981101103000004e+00 -0.0000000000000000e+00
ITEM: ATOMS id type xs ys zs fx fy fz
4 1 0.5 1 0.5 1.76248e-15 -1.51615e-15 2.27596e-15
3 1 0.5 0.5 1 1.75554e-15 2.26208e-15 -1.52656e-15
2 1 1 0.5 0.5 -1.51962e-15 1.75901e-15 2.29677e-15
1 1 1 1 1 -1.99146e-15 -2.4928e-15 -3.02536e-15
