
16 atoms
1 atom types
   0.0000000000    2.8637816768 xlo xhi
   0.0000000000    7.0148038428 ylo yhi
   0.0000000000   26.4544819517 zlo zhi
  -0.0000000000    0.0100000000   -2.3382679476 xy xz yz

Atoms # atomic

     1      1    0.0089062500    2.6305514411   23.5610229883
     2      1    2.8733129268    0.2922834935   25.2144281103
     3      1    1.4411095884   -2.0459844541   24.3877255493
     4      1    1.4417345884    2.6305514411   26.0411306712
     5      1    0.0076562500    0.2922834935   20.2542127443
     6      1    2.8720629268    4.9688193887   21.9076178663
     7      1    1.4398595884    2.6305514411   21.0809153053
     8      1    1.4404845884    0.2922834935   22.7343204273
     9      1    0.0064062500    4.9688193887   16.9474025003
    10      1    2.8708129268    2.6305514411   18.6008076223
    11      1    1.4386095884    0.2922834935   17.7741050613
    12      1    1.4392345884    4.9688193887   19.4275101833
    13      1    0.0051562500    2.6305514411   13.6405922564
    14      1    2.8695629268    0.2922834935   15.2939973784
    15      1    1.4373595884    4.9688193887   14.4672948174
    16      1    1.4379845884    2.6305514411   16.1206999393
