ITEM: TIMESTEP
0
ITEM: NUMBER OF ATOMS
16
ITEM: BOX BOUNDS xy xz yz pp pp pp
0.0000000000000000e+00 2.8737816767999997e+00 -0.0000000000000000e+00
-2.3382679475999999e+00 7.0148038428000001e+00 1.0000000000000000e-02
0.0000000000000000e+00 2.6454481951700000e+01 -2.3382679475999999e+00
ITEM: ATOMS id type xs ys zs fx fy fz
11 1 0.5 0.265625 0.671875 -0.000323645 -6.54327e-11 0.463279
14 1 1 0.234375 0.578125 0.00088701 -0.212511 -0.86898
5 1 1 0.296875 0.765625 4.56857e-14 1.83278e-16 -9.15465e-11
2 1 1 0.359375 0.953125 -0.000684488 -0.811969 0.47067
3 1 0.5 0.015625 0.921875 -0.00088701 0.212511 0.86898
8 1 0.5 0.328125 0.859375 0.000318805 0.113113 -0.657734
13 1 1 0.546875 0.515625 0.00126875 -0.293317 -0.651135
15 1 0.5 0.890625 0.546875 0.000684488 0.811969 -0.47067
9 1 1.03129e-15 0.921875 0.640625 -0.000318805 -0.113113 0.657734
10 1 1 0.609375 0.703125 3.18766e-14 1.59149e-11 -9.33376e-11
16 1 0.5 0.578125 0.609375 -0.000352438 -0.193028 0.869769
6 1 1 0.984375 0.828125 0.000323645 7.13394e-11 -0.463279
7 1 0.5 0.640625 0.796875 -4.47465e-14 -1.45367e-15 9.15604e-11
12 1 0.5 0.953125 0.734375 3.22822e-14 2.61435e-11 -1.10552e-10
1 1 1 0.671875 0.890625 0.000352438 0.193028 -0.869769
4 1 0.5 0.703125 0.984375 -0.00126875 0.293317 0.651135
