 vasp.5.4.4.18Apr17-6-g9f103f2a35 (build Nov 07 2022 11:18:25) complex          
  
 executed on             LinuxIFC date 2024.05.28  09:34:20
 running on   32 total cores
 distrk:  each k-point on   32 cores,    1 groups
 distr:  one band on NCORES_PER_BAND=   1 cores,   32 groups


--------------------------------------------------------------------------------------------------------


 INCAR:
 POTCAR:    PAW_PBE Al 04Jan2001                  

 ----------------------------------------------------------------------------- 
|                                                                             |
|           W    W    AA    RRRRR   N    N  II  N    N   GGGG   !!!           |
|           W    W   A  A   R    R  NN   N  II  NN   N  G    G  !!!           |
|           W    W  A    A  R    R  N N  N  II  N N  N  G       !!!           |
|           W WW W  AAAAAA  RRRRR   N  N N  II  N  N N  G  GGG   !            |
|           WW  WW  A    A  R   R   N   NN  II  N   NN  G    G                |
|           W    W  A    A  R    R  N    N  II  N    N   GGGG   !!!           |
|                                                                             |
|      For optimal performance we recommend to set                            |
|        NCORE= 4 - approx SQRT( number of cores)                             |
|      NCORE specifies how many cores store one orbital (NPAR=cpu/NCORE).     |
|      This setting can  greatly improve the performance of VASP for DFT.     |
|      The default,   NCORE=1            might be grossly inefficient         |
|      on modern multi-core architectures or massively parallel machines.     |
|      Do your own testing !!!!                                               |
|      Unfortunately you need to use the default for GW and RPA calculations. |
|      (for HF NCORE is supported but not extensively tested yet)             |
|                                                                             |
 ----------------------------------------------------------------------------- 

 POTCAR:    PAW_PBE Al 04Jan2001                  
   SHA256 =  17880443556af62b473fe41b62a467bd001ad55d2cabe504a3f22e34d4e9db96 Al
   COPYR  = (c) Copyright 04Jan2001 Georg Kresse                                
   COPYR  = This file is part of the software VASP. Any use, copying, and all ot
   COPYR  = If you do not have a valid VASP license, you may not use, copy or di
   VRHFIN =Al: s2p1                                                             
   LEXCH  = PE                                                                  
   EATOM  =    53.5387 eV,    3.9350 Ry                                         
                                                                                
   TITEL  = PAW_PBE Al 04Jan2001                                                
   LULTRA =        F    use ultrasoft PP ?                                      
   IUNSCR =        1    unscreen: 0-lin 1-nonlin 2-no                           
   RPACOR =    1.500    partial core radius                                     
   POMASS =   26.981; ZVAL   =    3.000    mass and valenz                      
   RCORE  =    1.900    outmost cutoff radius                                   
   RWIGS  =    2.650; RWIGS  =    1.402    wigner-seitz radius (au A)           
   ENMAX  =  240.300; ENMIN  =  180.225 eV                                      
   ICORE  =        2    local potential                                         
   LCOR   =        T    correct aug charges                                     
   LPAW   =        T    paw PP                                                  
   EAUG   =  291.052                                                            
   DEXC   =    0.000                                                            
   RMAX   =    1.939    core radius for proj-oper                               
   RAUG   =    1.300    factor for augmentation sphere                          
   RDEP   =    1.966    radius for radial grids                                 
   RDEPT  =    1.856    core radius for aug-charge                              
                                                                                
   Atomic configuration                                                         
    6 entries                                                                   
     n  l   j            E        occ.                                          
     1  0  0.50     -1511.1048   2.0000                                         
     2  0  0.50      -108.1629   2.0000                                         
     2  1  1.50       -69.6402   6.0000                                         
     3  0  0.50        -7.7528   2.0000                                         
     3  1  1.50        -2.7121   1.0000                                         
     3  2  2.50        -2.7212   0.0000                                         
   Description                                                                  
     l       E           TYP  RCUT    TYP  RCUT                                 
     0     -7.7528455     23  1.900                                             
     0     -3.3096929     23  1.900                                             
     1     -2.7120682     23  1.900                                             
     1     13.6058260     23  1.900                                             
     2     -2.7211652      7  1.900                                             
  local pseudopotential read in
  partial core-charges read in
  partial kinetic energy density read in
  atomic valenz-charges read in
  non local Contribution for L=           0  read in
    real space projection operators read in
  non local Contribution for L=           0  read in
    real space projection operators read in
  non local Contribution for L=           1  read in
    real space projection operators read in
  non local Contribution for L=           1  read in
    real space projection operators read in
    PAW grid and wavefunctions read in
 
   number of l-projection  operators is LMAX  =           4
   number of lm-projection operators is LMMAX =           8
 

 ----------------------------------------------------------------------------- 
|                                                                             |
|  ADVICE TO THIS USER RUNNING 'VASP/VAMP'   (HEAR YOUR MASTER'S VOICE ...):  |
|                                                                             |
|      You have a (more or less) 'small supercell' and for smaller cells      |
|      it is recommended  to use the reciprocal-space projection scheme!      |
|      The real space optimization is not  efficient for small cells and it   |
|      is also less accurate ...                                              |
|      Therefore set LREAL=.FALSE. in the  INCAR file                         |
|                                                                             |
 ----------------------------------------------------------------------------- 

 Optimization of the real space projectors (new method)

 maximal supplied QI-value         = 19.84
 optimisation between [QCUT,QGAM] = [ 10.12, 20.44] = [ 28.68,116.96] Ry 
 Optimized for a Real-space Cutoff    1.38 Angstroem

   l    n(q)    QCUT    max X(q) W(low)/X(q) W(high)/X(q)  e(spline) 
   0      8    10.119   176.870    0.39E-04    0.93E-04    0.54E-07
   0      8    10.119   105.762    0.37E-04    0.91E-04    0.53E-07
   1      8    10.119    55.370    0.18E-03    0.13E-03    0.19E-06
   1      8    10.119    20.208    0.17E-03    0.12E-03    0.18E-06
  PAW_PBE Al 04Jan2001                  :
 energy of atom  1       EATOM=  -53.5387
 kinetic energy error for atom=    0.0005 (will be added to EATOM!!)
 
 
 POSCAR: Al5                                     
  positions in direct lattice
  No initial velocities read in
 exchange correlation table for  LEXCH =        8
   RHO(1)=    0.500       N(1)  =     2000
   RHO(2)=  100.500       N(2)  =     4000
 


--------------------------------------------------------------------------------------------------------


 ion  position               nearest neighbor table
   1  0.650  0.650  0.050-   2 2.86   2 2.86   2 2.86
   2  0.950  0.950  0.150-   1 2.86   3 2.86   1 2.86   3 2.86   3 2.86   1 2.86
   3  0.250  0.250  0.250-   2 2.86   4 2.86   4 2.86   2 2.86   2 2.86   4 2.86
   4  0.550  0.550  0.350-   5 2.86   3 2.86   5 2.86   3 2.86   3 2.86   5 2.86
   5  0.850  0.850  0.450-   4 2.86   4 2.86   4 2.86
 
  Warning from LATTYP: Got some problem with cell dimensions!
  Tried to take original basis but could not verify dimensions!
  LATTYP: Found a triclinic cell.
 ALAT       =     2.8559545748
 B/A-ratio  =     1.0000000000
 C/A-ratio  =     8.3066261767
 COS(alpha) =     0.1201762382
 COS(beta)  =     0.1807898865
 COS(gamma) =     0.5000000000
  
  Lattice vectors:
  
 A1 = (  -1.4306489030,   2.4717848308,   0.0000000000)
 A2 = (   1.4199724186,   2.4717848308,   0.1744551918)
 A3 = (  -0.0206764844,   4.9435696615, -23.2025405033)


Analysis of symmetry for initial positions (statically):
=====================================================================
 Subroutine PRICEL returns:
 Original cell was already a primitive cell.
 

 Routine SETGRP: Setting up the symmetry group for a 
 triclinic supercell.


 Subroutine GETGRP returns: Found  2 space group operations
 (whereof  1 operations were pure point group operations)
 out of a pool of  2 trial point group operations.


The static configuration has the point symmetry C_1 .
 The point group associated with its full space group is S_2 .


Analysis of symmetry for dynamics (positions and initial velocities):
=====================================================================
 Subroutine PRICEL returns:
 Original cell was already a primitive cell.
 

 Routine SETGRP: Setting up the symmetry group for a 
 triclinic supercell.


 Subroutine GETGRP returns: Found  2 space group operations
 (whereof  1 operations were pure point group operations)
 out of a pool of  2 trial point group operations.


The dynamic configuration has the point symmetry C_1 .
 The point group associated with its full space group is S_2 .


 Subroutine INISYM returns: Found  2 space group operations
 (whereof  1 operations are pure point group operations),
 and found     1 'primitive' translations

 
 
 KPOINTS: Automatic kpoint scheme                 

Automatic generation of k-mesh.
Space group operators:
 irot       det(A)        alpha          n_x          n_y          n_z        tau_x        tau_y        tau_z
    1     1.000000     0.000000     1.000000     0.000000     0.000000     0.000000     0.000000     0.000000
    2    -1.000000     0.000000     1.000000     0.000000     0.000000    -0.500000     1.500000    -0.500000
 
 Subroutine IBZKPT returns following result:
 ===========================================
 
 Found   2048 irreducible k-points:
 
 Following reciprocal coordinates:
            Coordinates               Weight
  0.015625  0.015625  0.125000      2.000000
  0.046875  0.015625  0.125000      2.000000
  0.078125  0.015625  0.125000      2.000000
  0.109375  0.015625  0.125000      2.000000
  0.140625  0.015625  0.125000      2.000000
  0.171875  0.015625  0.125000      2.000000
  0.203125  0.015625  0.125000      2.000000
  0.234375  0.015625  0.125000      2.000000
  0.265625  0.015625  0.125000      2.000000
  0.296875  0.015625  0.125000      2.000000
  0.328125  0.015625  0.125000      2.000000
  0.359375  0.015625  0.125000      2.000000
  0.390625  0.015625  0.125000      2.000000
  0.421875  0.015625  0.125000      2.000000
  0.453125  0.015625  0.125000      2.000000
  0.484375  0.015625  0.125000      2.000000
 -0.484375  0.015625  0.125000      2.000000
 -0.453125  0.015625  0.125000      2.000000
 -0.421875  0.015625  0.125000      2.000000
 -0.390625  0.015625  0.125000      2.000000
 -0.359375  0.015625  0.125000      2.000000
 -0.328125  0.015625  0.125000      2.000000
 -0.296875  0.015625  0.125000      2.000000
 -0.265625  0.015625  0.125000      2.000000
 -0.234375  0.015625  0.125000      2.000000
 -0.203125  0.015625  0.125000      2.000000
 -0.171875  0.015625  0.125000      2.000000
 -0.140625  0.015625  0.125000      2.000000
 -0.109375  0.015625  0.125000      2.000000
 -0.078125  0.015625  0.125000      2.000000
 -0.046875  0.015625  0.125000      2.000000
 -0.015625  0.015625  0.125000      2.000000
  0.015625  0.046875  0.125000      2.000000
  0.046875  0.046875  0.125000      2.000000
  0.078125  0.046875  0.125000      2.000000
  0.109375  0.046875  0.125000      2.000000
  0.140625  0.046875  0.125000      2.000000
  0.171875  0.046875  0.125000      2.000000
  0.203125  0.046875  0.125000      2.000000
  0.234375  0.046875  0.125000      2.000000
  0.265625  0.046875  0.125000      2.000000
  0.296875  0.046875  0.125000      2.000000
  0.328125  0.046875  0.125000      2.000000
  0.359375  0.046875  0.125000      2.000000
  0.390625  0.046875  0.125000      2.000000
  0.421875  0.046875  0.125000      2.000000
  0.453125  0.046875  0.125000      2.000000
  0.484375  0.046875  0.125000      2.000000
 -0.484375  0.046875  0.125000      2.000000
 -0.453125  0.046875  0.125000      2.000000
 -0.421875  0.046875  0.125000      2.000000
 -0.390625  0.046875  0.125000      2.000000
 -0.359375  0.046875  0.125000      2.000000
 -0.328125  0.046875  0.125000      2.000000
 -0.296875  0.046875  0.125000      2.000000
 -0.265625  0.046875  0.125000      2.000000
 -0.234375  0.046875  0.125000      2.000000
 -0.203125  0.046875  0.125000      2.000000
 -0.171875  0.046875  0.125000      2.000000
 -0.140625  0.046875  0.125000      2.000000
 -0.109375  0.046875  0.125000      2.000000
 -0.078125  0.046875  0.125000      2.000000
 -0.046875  0.046875  0.125000      2.000000
 -0.015625  0.046875  0.125000      2.000000
  0.015625  0.078125  0.125000      2.000000
  0.046875  0.078125  0.125000      2.000000
  0.078125  0.078125  0.125000      2.000000
  0.109375  0.078125  0.125000      2.000000
  0.140625  0.078125  0.125000      2.000000
  0.171875  0.078125  0.125000      2.000000
  0.203125  0.078125  0.125000      2.000000
  0.234375  0.078125  0.125000      2.000000
  0.265625  0.078125  0.125000      2.000000
  0.296875  0.078125  0.125000      2.000000
  0.328125  0.078125  0.125000      2.000000
  0.359375  0.078125  0.125000      2.000000
  0.390625  0.078125  0.125000      2.000000
  0.421875  0.078125  0.125000      2.000000
  0.453125  0.078125  0.125000      2.000000
  0.484375  0.078125  0.125000      2.000000
 -0.484375  0.078125  0.125000      2.000000
 -0.453125  0.078125  0.125000      2.000000
 -0.421875  0.078125  0.125000      2.000000
 -0.390625  0.078125  0.125000      2.000000
 -0.359375  0.078125  0.125000      2.000000
 -0.328125  0.078125  0.125000      2.000000
 -0.296875  0.078125  0.125000      2.000000
 -0.265625  0.078125  0.125000      2.000000
 -0.234375  0.078125  0.125000      2.000000
 -0.203125  0.078125  0.125000      2.000000
 -0.171875  0.078125  0.125000      2.000000
 -0.140625  0.078125  0.125000      2.000000
 -0.109375  0.078125  0.125000      2.000000
 -0.078125  0.078125  0.125000      2.000000
 -0.046875  0.078125  0.125000      2.000000
 -0.015625  0.078125  0.125000      2.000000
  0.015625  0.109375  0.125000      2.000000
  0.046875  0.109375  0.125000      2.000000
  0.078125  0.109375  0.125000      2.000000
  0.109375  0.109375  0.125000      2.000000
  0.140625  0.109375  0.125000      2.000000
  0.171875  0.109375  0.125000      2.000000
  0.203125  0.109375  0.125000      2.000000
  0.234375  0.109375  0.125000      2.000000
  0.265625  0.109375  0.125000      2.000000
  0.296875  0.109375  0.125000      2.000000
  0.328125  0.109375  0.125000      2.000000
  0.359375  0.109375  0.125000      2.000000
  0.390625  0.109375  0.125000      2.000000
  0.421875  0.109375  0.125000      2.000000
  0.453125  0.109375  0.125000      2.000000
  0.484375  0.109375  0.125000      2.000000
 -0.484375  0.109375  0.125000      2.000000
 -0.453125  0.109375  0.125000      2.000000
 -0.421875  0.109375  0.125000      2.000000
 -0.390625  0.109375  0.125000      2.000000
 -0.359375  0.109375  0.125000      2.000000
 -0.328125  0.109375  0.125000      2.000000
 -0.296875  0.109375  0.125000      2.000000
 -0.265625  0.109375  0.125000      2.000000
 -0.234375  0.109375  0.125000      2.000000
 -0.203125  0.109375  0.125000      2.000000
 -0.171875  0.109375  0.125000      2.000000
 -0.140625  0.109375  0.125000      2.000000
 -0.109375  0.109375  0.125000      2.000000
 -0.078125  0.109375  0.125000      2.000000
 -0.046875  0.109375  0.125000      2.000000
 -0.015625  0.109375  0.125000      2.000000
  0.015625  0.140625  0.125000      2.000000
  0.046875  0.140625  0.125000      2.000000
  0.078125  0.140625  0.125000      2.000000
  0.109375  0.140625  0.125000      2.000000
  0.140625  0.140625  0.125000      2.000000
  0.171875  0.140625  0.125000      2.000000
  0.203125  0.140625  0.125000      2.000000
  0.234375  0.140625  0.125000      2.000000
  0.265625  0.140625  0.125000      2.000000
  0.296875  0.140625  0.125000      2.000000
  0.328125  0.140625  0.125000      2.000000
  0.359375  0.140625  0.125000      2.000000
  0.390625  0.140625  0.125000      2.000000
  0.421875  0.140625  0.125000      2.000000
  0.453125  0.140625  0.125000      2.000000
  0.484375  0.140625  0.125000      2.000000
 -0.484375  0.140625  0.125000      2.000000
 -0.453125  0.140625  0.125000      2.000000
 -0.421875  0.140625  0.125000      2.000000
 -0.390625  0.140625  0.125000      2.000000
 -0.359375  0.140625  0.125000      2.000000
 -0.328125  0.140625  0.125000      2.000000
 -0.296875  0.140625  0.125000      2.000000
 -0.265625  0.140625  0.125000      2.000000
 -0.234375  0.140625  0.125000      2.000000
 -0.203125  0.140625  0.125000      2.000000
 -0.171875  0.140625  0.125000      2.000000
 -0.140625  0.140625  0.125000      2.000000
 -0.109375  0.140625  0.125000      2.000000
 -0.078125  0.140625  0.125000      2.000000
 -0.046875  0.140625  0.125000      2.000000
 -0.015625  0.140625  0.125000      2.000000
  0.015625  0.171875  0.125000      2.000000
  0.046875  0.171875  0.125000      2.000000
  0.078125  0.171875  0.125000      2.000000
  0.109375  0.171875  0.125000      2.000000
  0.140625  0.171875  0.125000      2.000000
  0.171875  0.171875  0.125000      2.000000
  0.203125  0.171875  0.125000      2.000000
  0.234375  0.171875  0.125000      2.000000
  0.265625  0.171875  0.125000      2.000000
  0.296875  0.171875  0.125000      2.000000
  0.328125  0.171875  0.125000      2.000000
  0.359375  0.171875  0.125000      2.000000
  0.390625  0.171875  0.125000      2.000000
  0.421875  0.171875  0.125000      2.000000
  0.453125  0.171875  0.125000      2.000000
  0.484375  0.171875  0.125000      2.000000
 -0.484375  0.171875  0.125000      2.000000
 -0.453125  0.171875  0.125000      2.000000
 -0.421875  0.171875  0.125000      2.000000
 -0.390625  0.171875  0.125000      2.000000
 -0.359375  0.171875  0.125000      2.000000
 -0.328125  0.171875  0.125000      2.000000
 -0.296875  0.171875  0.125000      2.000000
 -0.265625  0.171875  0.125000      2.000000
 -0.234375  0.171875  0.125000      2.000000
 -0.203125  0.171875  0.125000      2.000000
 -0.171875  0.171875  0.125000      2.000000
 -0.140625  0.171875  0.125000      2.000000
 -0.109375  0.171875  0.125000      2.000000
 -0.078125  0.171875  0.125000      2.000000
 -0.046875  0.171875  0.125000      2.000000
 -0.015625  0.171875  0.125000      2.000000
  0.015625  0.203125  0.125000      2.000000
  0.046875  0.203125  0.125000      2.000000
  0.078125  0.203125  0.125000      2.000000
  0.109375  0.203125  0.125000      2.000000
  0.140625  0.203125  0.125000      2.000000
  0.171875  0.203125  0.125000      2.000000
  0.203125  0.203125  0.125000      2.000000
  0.234375  0.203125  0.125000      2.000000
  0.265625  0.203125  0.125000      2.000000
  0.296875  0.203125  0.125000      2.000000
  0.328125  0.203125  0.125000      2.000000
  0.359375  0.203125  0.125000      2.000000
  0.390625  0.203125  0.125000      2.000000
  0.421875  0.203125  0.125000      2.000000
  0.453125  0.203125  0.125000      2.000000
  0.484375  0.203125  0.125000      2.000000
 -0.484375  0.203125  0.125000      2.000000
 -0.453125  0.203125  0.125000      2.000000
 -0.421875  0.203125  0.125000      2.000000
 -0.390625  0.203125  0.125000      2.000000
 -0.359375  0.203125  0.125000      2.000000
 -0.328125  0.203125  0.125000      2.000000
 -0.296875  0.203125  0.125000      2.000000
 -0.265625  0.203125  0.125000      2.000000
 -0.234375  0.203125  0.125000      2.000000
 -0.203125  0.203125  0.125000      2.000000
 -0.171875  0.203125  0.125000      2.000000
 -0.140625  0.203125  0.125000      2.000000
 -0.109375  0.203125  0.125000      2.000000
 -0.078125  0.203125  0.125000      2.000000
 -0.046875  0.203125  0.125000      2.000000
 -0.015625  0.203125  0.125000      2.000000
  0.015625  0.234375  0.125000      2.000000
  0.046875  0.234375  0.125000      2.000000
  0.078125  0.234375  0.125000      2.000000
  0.109375  0.234375  0.125000      2.000000
  0.140625  0.234375  0.125000      2.000000
  0.171875  0.234375  0.125000      2.000000
  0.203125  0.234375  0.125000      2.000000
  0.234375  0.234375  0.125000      2.000000
  0.265625  0.234375  0.125000      2.000000
  0.296875  0.234375  0.125000      2.000000
  0.328125  0.234375  0.125000      2.000000
  0.359375  0.234375  0.125000      2.000000
  0.390625  0.234375  0.125000      2.000000
  0.421875  0.234375  0.125000      2.000000
  0.453125  0.234375  0.125000      2.000000
  0.484375  0.234375  0.125000      2.000000
 -0.484375  0.234375  0.125000      2.000000
 -0.453125  0.234375  0.125000      2.000000
 -0.421875  0.234375  0.125000      2.000000
 -0.390625  0.234375  0.125000      2.000000
 -0.359375  0.234375  0.125000      2.000000
 -0.328125  0.234375  0.125000      2.000000
 -0.296875  0.234375  0.125000      2.000000
 -0.265625  0.234375  0.125000      2.000000
 -0.234375  0.234375  0.125000      2.000000
 -0.203125  0.234375  0.125000      2.000000
 -0.171875  0.234375  0.125000      2.000000
 -0.140625  0.234375  0.125000      2.000000
 -0.109375  0.234375  0.125000      2.000000
 -0.078125  0.234375  0.125000      2.000000
 -0.046875  0.234375  0.125000      2.000000
 -0.015625  0.234375  0.125000      2.000000
  0.015625  0.265625  0.125000      2.000000
  0.046875  0.265625  0.125000      2.000000
  0.078125  0.265625  0.125000      2.000000
  0.109375  0.265625  0.125000      2.000000
  0.140625  0.265625  0.125000      2.000000
  0.171875  0.265625  0.125000      2.000000
  0.203125  0.265625  0.125000      2.000000
  0.234375  0.265625  0.125000      2.000000
  0.265625  0.265625  0.125000      2.000000
  0.296875  0.265625  0.125000      2.000000
  0.328125  0.265625  0.125000      2.000000
  0.359375  0.265625  0.125000      2.000000
  0.390625  0.265625  0.125000      2.000000
  0.421875  0.265625  0.125000      2.000000
  0.453125  0.265625  0.125000      2.000000
  0.484375  0.265625  0.125000      2.000000
 -0.484375  0.265625  0.125000      2.000000
 -0.453125  0.265625  0.125000      2.000000
 -0.421875  0.265625  0.125000      2.000000
 -0.390625  0.265625  0.125000      2.000000
 -0.359375  0.265625  0.125000      2.000000
 -0.328125  0.265625  0.125000      2.000000
 -0.296875  0.265625  0.125000      2.000000
 -0.265625  0.265625  0.125000      2.000000
 -0.234375  0.265625  0.125000      2.000000
 -0.203125  0.265625  0.125000      2.000000
 -0.171875  0.265625  0.125000      2.000000
 -0.140625  0.265625  0.125000      2.000000
 -0.109375  0.265625  0.125000      2.000000
 -0.078125  0.265625  0.125000      2.000000
 -0.046875  0.265625  0.125000      2.000000
 -0.015625  0.265625  0.125000      2.000000
  0.015625  0.296875  0.125000      2.000000
  0.046875  0.296875  0.125000      2.000000
  0.078125  0.296875  0.125000      2.000000
  0.109375  0.296875  0.125000      2.000000
  0.140625  0.296875  0.125000      2.000000
  0.171875  0.296875  0.125000      2.000000
  0.203125  0.296875  0.125000      2.000000
  0.234375  0.296875  0.125000      2.000000
  0.265625  0.296875  0.125000      2.000000
  0.296875  0.296875  0.125000      2.000000
  0.328125  0.296875  0.125000      2.000000
  0.359375  0.296875  0.125000      2.000000
  0.390625  0.296875  0.125000      2.000000
  0.421875  0.296875  0.125000      2.000000
  0.453125  0.296875  0.125000      2.000000
  0.484375  0.296875  0.125000      2.000000
 -0.484375  0.296875  0.125000      2.000000
 -0.453125  0.296875  0.125000      2.000000
 -0.421875  0.296875  0.125000      2.000000
 -0.390625  0.296875  0.125000      2.000000
 -0.359375  0.296875  0.125000      2.000000
 -0.328125  0.296875  0.125000      2.000000
 -0.296875  0.296875  0.125000      2.000000
 -0.265625  0.296875  0.125000      2.000000
 -0.234375  0.296875  0.125000      2.000000
 -0.203125  0.296875  0.125000      2.000000
 -0.171875  0.296875  0.125000      2.000000
 -0.140625  0.296875  0.125000      2.000000
 -0.109375  0.296875  0.125000      2.000000
 -0.078125  0.296875  0.125000      2.000000
 -0.046875  0.296875  0.125000      2.000000
 -0.015625  0.296875  0.125000      2.000000
  0.015625  0.328125  0.125000      2.000000
  0.046875  0.328125  0.125000      2.000000
  0.078125  0.328125  0.125000      2.000000
  0.109375  0.328125  0.125000      2.000000
  0.140625  0.328125  0.125000      2.000000
  0.171875  0.328125  0.125000      2.000000
  0.203125  0.328125  0.125000      2.000000
  0.234375  0.328125  0.125000      2.000000
  0.265625  0.328125  0.125000      2.000000
  0.296875  0.328125  0.125000      2.000000
  0.328125  0.328125  0.125000      2.000000
  0.359375  0.328125  0.125000      2.000000
  0.390625  0.328125  0.125000      2.000000
  0.421875  0.328125  0.125000      2.000000
  0.453125  0.328125  0.125000      2.000000
  0.484375  0.328125  0.125000      2.000000
 -0.484375  0.328125  0.125000      2.000000
 -0.453125  0.328125  0.125000      2.000000
 -0.421875  0.328125  0.125000      2.000000
 -0.390625  0.328125  0.125000      2.000000
 -0.359375  0.328125  0.125000      2.000000
 -0.328125  0.328125  0.125000      2.000000
 -0.296875  0.328125  0.125000      2.000000
 -0.265625  0.328125  0.125000      2.000000
 -0.234375  0.328125  0.125000      2.000000
 -0.203125  0.328125  0.125000      2.000000
 -0.171875  0.328125  0.125000      2.000000
 -0.140625  0.328125  0.125000      2.000000
 -0.109375  0.328125  0.125000      2.000000
 -0.078125  0.328125  0.125000      2.000000
 -0.046875  0.328125  0.125000      2.000000
 -0.015625  0.328125  0.125000      2.000000
  0.015625  0.359375  0.125000      2.000000
  0.046875  0.359375  0.125000      2.000000
  0.078125  0.359375  0.125000      2.000000
  0.109375  0.359375  0.125000      2.000000
  0.140625  0.359375  0.125000      2.000000
  0.171875  0.359375  0.125000      2.000000
  0.203125  0.359375  0.125000      2.000000
  0.234375  0.359375  0.125000      2.000000
  0.265625  0.359375  0.125000      2.000000
  0.296875  0.359375  0.125000      2.000000
  0.328125  0.359375  0.125000      2.000000
  0.359375  0.359375  0.125000      2.000000
  0.390625  0.359375  0.125000      2.000000
  0.421875  0.359375  0.125000      2.000000
  0.453125  0.359375  0.125000      2.000000
  0.484375  0.359375  0.125000      2.000000
 -0.484375  0.359375  0.125000      2.000000
 -0.453125  0.359375  0.125000      2.000000
 -0.421875  0.359375  0.125000      2.000000
 -0.390625  0.359375  0.125000      2.000000
 -0.359375  0.359375  0.125000      2.000000
 -0.328125  0.359375  0.125000      2.000000
 -0.296875  0.359375  0.125000      2.000000
 -0.265625  0.359375  0.125000      2.000000
 -0.234375  0.359375  0.125000      2.000000
 -0.203125  0.359375  0.125000      2.000000
 -0.171875  0.359375  0.125000      2.000000
 -0.140625  0.359375  0.125000      2.000000
 -0.109375  0.359375  0.125000      2.000000
 -0.078125  0.359375  0.125000      2.000000
 -0.046875  0.359375  0.125000      2.000000
 -0.015625  0.359375  0.125000      2.000000
  0.015625  0.390625  0.125000      2.000000
  0.046875  0.390625  0.125000      2.000000
  0.078125  0.390625  0.125000      2.000000
  0.109375  0.390625  0.125000      2.000000
  0.140625  0.390625  0.125000      2.000000
  0.171875  0.390625  0.125000      2.000000
  0.203125  0.390625  0.125000      2.000000
  0.234375  0.390625  0.125000      2.000000
  0.265625  0.390625  0.125000      2.000000
  0.296875  0.390625  0.125000      2.000000
  0.328125  0.390625  0.125000      2.000000
  0.359375  0.390625  0.125000      2.000000
  0.390625  0.390625  0.125000      2.000000
  0.421875  0.390625  0.125000      2.000000
  0.453125  0.390625  0.125000      2.000000
  0.484375  0.390625  0.125000      2.000000
 -0.484375  0.390625  0.125000      2.000000
 -0.453125  0.390625  0.125000      2.000000
 -0.421875  0.390625  0.125000      2.000000
 -0.390625  0.390625  0.125000      2.000000
 -0.359375  0.390625  0.125000      2.000000
 -0.328125  0.390625  0.125000      2.000000
 -0.296875  0.390625  0.125000      2.000000
 -0.265625  0.390625  0.125000      2.000000
 -0.234375  0.390625  0.125000      2.000000
 -0.203125  0.390625  0.125000      2.000000
 -0.171875  0.390625  0.125000      2.000000
 -0.140625  0.390625  0.125000      2.000000
 -0.109375  0.390625  0.125000      2.000000
 -0.078125  0.390625  0.125000      2.000000
 -0.046875  0.390625  0.125000      2.000000
 -0.015625  0.390625  0.125000      2.000000
  0.015625  0.421875  0.125000      2.000000
  0.046875  0.421875  0.125000      2.000000
  0.078125  0.421875  0.125000      2.000000
  0.109375  0.421875  0.125000      2.000000
  0.140625  0.421875  0.125000      2.000000
  0.171875  0.421875  0.125000      2.000000
  0.203125  0.421875  0.125000      2.000000
  0.234375  0.421875  0.125000      2.000000
  0.265625  0.421875  0.125000      2.000000
  0.296875  0.421875  0.125000      2.000000
  0.328125  0.421875  0.125000      2.000000
  0.359375  0.421875  0.125000      2.000000
  0.390625  0.421875  0.125000      2.000000
  0.421875  0.421875  0.125000      2.000000
  0.453125  0.421875  0.125000      2.000000
  0.484375  0.421875  0.125000      2.000000
 -0.484375  0.421875  0.125000      2.000000
 -0.453125  0.421875  0.125000      2.000000
 -0.421875  0.421875  0.125000      2.000000
 -0.390625  0.421875  0.125000      2.000000
 -0.359375  0.421875  0.125000      2.000000
 -0.328125  0.421875  0.125000      2.000000
 -0.296875  0.421875  0.125000      2.000000
 -0.265625  0.421875  0.125000      2.000000
 -0.234375  0.421875  0.125000      2.000000
 -0.203125  0.421875  0.125000      2.000000
 -0.171875  0.421875  0.125000      2.000000
 -0.140625  0.421875  0.125000      2.000000
 -0.109375  0.421875  0.125000      2.000000
 -0.078125  0.421875  0.125000      2.000000
 -0.046875  0.421875  0.125000      2.000000
 -0.015625  0.421875  0.125000      2.000000
  0.015625  0.453125  0.125000      2.000000
  0.046875  0.453125  0.125000      2.000000
  0.078125  0.453125  0.125000      2.000000
  0.109375  0.453125  0.125000      2.000000
  0.140625  0.453125  0.125000      2.000000
  0.171875  0.453125  0.125000      2.000000
  0.203125  0.453125  0.125000      2.000000
  0.234375  0.453125  0.125000      2.000000
  0.265625  0.453125  0.125000      2.000000
  0.296875  0.453125  0.125000      2.000000
  0.328125  0.453125  0.125000      2.000000
  0.359375  0.453125  0.125000      2.000000
  0.390625  0.453125  0.125000      2.000000
  0.421875  0.453125  0.125000      2.000000
  0.453125  0.453125  0.125000      2.000000
  0.484375  0.453125  0.125000      2.000000
 -0.484375  0.453125  0.125000      2.000000
 -0.453125  0.453125  0.125000      2.000000
 -0.421875  0.453125  0.125000      2.000000
 -0.390625  0.453125  0.125000      2.000000
 -0.359375  0.453125  0.125000      2.000000
 -0.328125  0.453125  0.125000      2.000000
 -0.296875  0.453125  0.125000      2.000000
 -0.265625  0.453125  0.125000      2.000000
 -0.234375  0.453125  0.125000      2.000000
 -0.203125  0.453125  0.125000      2.000000
 -0.171875  0.453125  0.125000      2.000000
 -0.140625  0.453125  0.125000      2.000000
 -0.109375  0.453125  0.125000      2.000000
 -0.078125  0.453125  0.125000      2.000000
 -0.046875  0.453125  0.125000      2.000000
 -0.015625  0.453125  0.125000      2.000000
  0.015625  0.484375  0.125000      2.000000
  0.046875  0.484375  0.125000      2.000000
  0.078125  0.484375  0.125000      2.000000
  0.109375  0.484375  0.125000      2.000000
  0.140625  0.484375  0.125000      2.000000
  0.171875  0.484375  0.125000      2.000000
  0.203125  0.484375  0.125000      2.000000
  0.234375  0.484375  0.125000      2.000000
  0.265625  0.484375  0.125000      2.000000
  0.296875  0.484375  0.125000      2.000000
  0.328125  0.484375  0.125000      2.000000
  0.359375  0.484375  0.125000      2.000000
  0.390625  0.484375  0.125000      2.000000
  0.421875  0.484375  0.125000      2.000000
  0.453125  0.484375  0.125000      2.000000
  0.484375  0.484375  0.125000      2.000000
 -0.484375  0.484375  0.125000      2.000000
 -0.453125  0.484375  0.125000      2.000000
 -0.421875  0.484375  0.125000      2.000000
 -0.390625  0.484375  0.125000      2.000000
 -0.359375  0.484375  0.125000      2.000000
 -0.328125  0.484375  0.125000      2.000000
 -0.296875  0.484375  0.125000      2.000000
 -0.265625  0.484375  0.125000      2.000000
 -0.234375  0.484375  0.125000      2.000000
 -0.203125  0.484375  0.125000      2.000000
 -0.171875  0.484375  0.125000      2.000000
 -0.140625  0.484375  0.125000      2.000000
 -0.109375  0.484375  0.125000      2.000000
 -0.078125  0.484375  0.125000      2.000000
 -0.046875  0.484375  0.125000      2.000000
 -0.015625  0.484375  0.125000      2.000000
  0.015625 -0.484375  0.125000      2.000000
  0.046875 -0.484375  0.125000      2.000000
  0.078125 -0.484375  0.125000      2.000000
  0.109375 -0.484375  0.125000      2.000000
  0.140625 -0.484375  0.125000      2.000000
  0.171875 -0.484375  0.125000      2.000000
  0.203125 -0.484375  0.125000      2.000000
  0.234375 -0.484375  0.125000      2.000000
  0.265625 -0.484375  0.125000      2.000000
  0.296875 -0.484375  0.125000      2.000000
  0.328125 -0.484375  0.125000      2.000000
  0.359375 -0.484375  0.125000      2.000000
  0.390625 -0.484375  0.125000      2.000000
  0.421875 -0.484375  0.125000      2.000000
  0.453125 -0.484375  0.125000      2.000000
  0.484375 -0.484375  0.125000      2.000000
 -0.484375 -0.484375  0.125000      2.000000
 -0.453125 -0.484375  0.125000      2.000000
 -0.421875 -0.484375  0.125000      2.000000
 -0.390625 -0.484375  0.125000      2.000000
 -0.359375 -0.484375  0.125000      2.000000
 -0.328125 -0.484375  0.125000      2.000000
 -0.296875 -0.484375  0.125000      2.000000
 -0.265625 -0.484375  0.125000      2.000000
 -0.234375 -0.484375  0.125000      2.000000
 -0.203125 -0.484375  0.125000      2.000000
 -0.171875 -0.484375  0.125000      2.000000
 -0.140625 -0.484375  0.125000      2.000000
 -0.109375 -0.484375  0.125000      2.000000
 -0.078125 -0.484375  0.125000      2.000000
 -0.046875 -0.484375  0.125000      2.000000
 -0.015625 -0.484375  0.125000      2.000000
  0.015625 -0.453125  0.125000      2.000000
  0.046875 -0.453125  0.125000      2.000000
  0.078125 -0.453125  0.125000      2.000000
  0.109375 -0.453125  0.125000      2.000000
  0.140625 -0.453125  0.125000      2.000000
  0.171875 -0.453125  0.125000      2.000000
  0.203125 -0.453125  0.125000      2.000000
  0.234375 -0.453125  0.125000      2.000000
  0.265625 -0.453125  0.125000      2.000000
  0.296875 -0.453125  0.125000      2.000000
  0.328125 -0.453125  0.125000      2.000000
  0.359375 -0.453125  0.125000      2.000000
  0.390625 -0.453125  0.125000      2.000000
  0.421875 -0.453125  0.125000      2.000000
  0.453125 -0.453125  0.125000      2.000000
  0.484375 -0.453125  0.125000      2.000000
 -0.484375 -0.453125  0.125000      2.000000
 -0.453125 -0.453125  0.125000      2.000000
 -0.421875 -0.453125  0.125000      2.000000
 -0.390625 -0.453125  0.125000      2.000000
 -0.359375 -0.453125  0.125000      2.000000
 -0.328125 -0.453125  0.125000      2.000000
 -0.296875 -0.453125  0.125000      2.000000
 -0.265625 -0.453125  0.125000      2.000000
 -0.234375 -0.453125  0.125000      2.000000
 -0.203125 -0.453125  0.125000      2.000000
 -0.171875 -0.453125  0.125000      2.000000
 -0.140625 -0.453125  0.125000      2.000000
 -0.109375 -0.453125  0.125000      2.000000
 -0.078125 -0.453125  0.125000      2.000000
 -0.046875 -0.453125  0.125000      2.000000
 -0.015625 -0.453125  0.125000      2.000000
  0.015625 -0.421875  0.125000      2.000000
  0.046875 -0.421875  0.125000      2.000000
  0.078125 -0.421875  0.125000      2.000000
  0.109375 -0.421875  0.125000      2.000000
  0.140625 -0.421875  0.125000      2.000000
  0.171875 -0.421875  0.125000      2.000000
  0.203125 -0.421875  0.125000      2.000000
  0.234375 -0.421875  0.125000      2.000000
  0.265625 -0.421875  0.125000      2.000000
  0.296875 -0.421875  0.125000      2.000000
  0.328125 -0.421875  0.125000      2.000000
  0.359375 -0.421875  0.125000      2.000000
  0.390625 -0.421875  0.125000      2.000000
  0.421875 -0.421875  0.125000      2.000000
  0.453125 -0.421875  0.125000      2.000000
  0.484375 -0.421875  0.125000      2.000000
 -0.484375 -0.421875  0.125000      2.000000
 -0.453125 -0.421875  0.125000      2.000000
 -0.421875 -0.421875  0.125000      2.000000
 -0.390625 -0.421875  0.125000      2.000000
 -0.359375 -0.421875  0.125000      2.000000
 -0.328125 -0.421875  0.125000      2.000000
 -0.296875 -0.421875  0.125000      2.000000
 -0.265625 -0.421875  0.125000      2.000000
 -0.234375 -0.421875  0.125000      2.000000
 -0.203125 -0.421875  0.125000      2.000000
 -0.171875 -0.421875  0.125000      2.000000
 -0.140625 -0.421875  0.125000      2.000000
 -0.109375 -0.421875  0.125000      2.000000
 -0.078125 -0.421875  0.125000      2.000000
 -0.046875 -0.421875  0.125000      2.000000
 -0.015625 -0.421875  0.125000      2.000000
  0.015625 -0.390625  0.125000      2.000000
  0.046875 -0.390625  0.125000      2.000000
  0.078125 -0.390625  0.125000      2.000000
  0.109375 -0.390625  0.125000      2.000000
  0.140625 -0.390625  0.125000      2.000000
  0.171875 -0.390625  0.125000      2.000000
  0.203125 -0.390625  0.125000      2.000000
  0.234375 -0.390625  0.125000      2.000000
  0.265625 -0.390625  0.125000      2.000000
  0.296875 -0.390625  0.125000      2.000000
  0.328125 -0.390625  0.125000      2.000000
  0.359375 -0.390625  0.125000      2.000000
  0.390625 -0.390625  0.125000      2.000000
  0.421875 -0.390625  0.125000      2.000000
  0.453125 -0.390625  0.125000      2.000000
  0.484375 -0.390625  0.125000      2.000000
 -0.484375 -0.390625  0.125000      2.000000
 -0.453125 -0.390625  0.125000      2.000000
 -0.421875 -0.390625  0.125000      2.000000
 -0.390625 -0.390625  0.125000      2.000000
 -0.359375 -0.390625  0.125000      2.000000
 -0.328125 -0.390625  0.125000      2.000000
 -0.296875 -0.390625  0.125000      2.000000
 -0.265625 -0.390625  0.125000      2.000000
 -0.234375 -0.390625  0.125000      2.000000
 -0.203125 -0.390625  0.125000      2.000000
 -0.171875 -0.390625  0.125000      2.000000
 -0.140625 -0.390625  0.125000      2.000000
 -0.109375 -0.390625  0.125000      2.000000
 -0.078125 -0.390625  0.125000      2.000000
 -0.046875 -0.390625  0.125000      2.000000
 -0.015625 -0.390625  0.125000      2.000000
  0.015625 -0.359375  0.125000      2.000000
  0.046875 -0.359375  0.125000      2.000000
  0.078125 -0.359375  0.125000      2.000000
  0.109375 -0.359375  0.125000      2.000000
  0.140625 -0.359375  0.125000      2.000000
  0.171875 -0.359375  0.125000      2.000000
  0.203125 -0.359375  0.125000      2.000000
  0.234375 -0.359375  0.125000      2.000000
  0.265625 -0.359375  0.125000      2.000000
  0.296875 -0.359375  0.125000      2.000000
  0.328125 -0.359375  0.125000      2.000000
  0.359375 -0.359375  0.125000      2.000000
  0.390625 -0.359375  0.125000      2.000000
  0.421875 -0.359375  0.125000      2.000000
  0.453125 -0.359375  0.125000      2.000000
  0.484375 -0.359375  0.125000      2.000000
 -0.484375 -0.359375  0.125000      2.000000
 -0.453125 -0.359375  0.125000      2.000000
 -0.421875 -0.359375  0.125000      2.000000
 -0.390625 -0.359375  0.125000      2.000000
 -0.359375 -0.359375  0.125000      2.000000
 -0.328125 -0.359375  0.125000      2.000000
 -0.296875 -0.359375  0.125000      2.000000
 -0.265625 -0.359375  0.125000      2.000000
 -0.234375 -0.359375  0.125000      2.000000
 -0.203125 -0.359375  0.125000      2.000000
 -0.171875 -0.359375  0.125000      2.000000
 -0.140625 -0.359375  0.125000      2.000000
 -0.109375 -0.359375  0.125000      2.000000
 -0.078125 -0.359375  0.125000      2.000000
 -0.046875 -0.359375  0.125000      2.000000
 -0.015625 -0.359375  0.125000      2.000000
  0.015625 -0.328125  0.125000      2.000000
  0.046875 -0.328125  0.125000      2.000000
  0.078125 -0.328125  0.125000      2.000000
  0.109375 -0.328125  0.125000      2.000000
  0.140625 -0.328125  0.125000      2.000000
  0.171875 -0.328125  0.125000      2.000000
  0.203125 -0.328125  0.125000      2.000000
  0.234375 -0.328125  0.125000      2.000000
  0.265625 -0.328125  0.125000      2.000000
  0.296875 -0.328125  0.125000      2.000000
  0.328125 -0.328125  0.125000      2.000000
  0.359375 -0.328125  0.125000      2.000000
  0.390625 -0.328125  0.125000      2.000000
  0.421875 -0.328125  0.125000      2.000000
  0.453125 -0.328125  0.125000      2.000000
  0.484375 -0.328125  0.125000      2.000000
 -0.484375 -0.328125  0.125000      2.000000
 -0.453125 -0.328125  0.125000      2.000000
 -0.421875 -0.328125  0.125000      2.000000
 -0.390625 -0.328125  0.125000      2.000000
 -0.359375 -0.328125  0.125000      2.000000
 -0.328125 -0.328125  0.125000      2.000000
 -0.296875 -0.328125  0.125000      2.000000
 -0.265625 -0.328125  0.125000      2.000000
 -0.234375 -0.328125  0.125000      2.000000
 -0.203125 -0.328125  0.125000      2.000000
 -0.171875 -0.328125  0.125000      2.000000
 -0.140625 -0.328125  0.125000      2.000000
 -0.109375 -0.328125  0.125000      2.000000
 -0.078125 -0.328125  0.125000      2.000000
 -0.046875 -0.328125  0.125000      2.000000
 -0.015625 -0.328125  0.125000      2.000000
  0.015625 -0.296875  0.125000      2.000000
  0.046875 -0.296875  0.125000      2.000000
  0.078125 -0.296875  0.125000      2.000000
  0.109375 -0.296875  0.125000      2.000000
  0.140625 -0.296875  0.125000      2.000000
  0.171875 -0.296875  0.125000      2.000000
  0.203125 -0.296875  0.125000      2.000000
  0.234375 -0.296875  0.125000      2.000000
  0.265625 -0.296875  0.125000      2.000000
  0.296875 -0.296875  0.125000      2.000000
  0.328125 -0.296875  0.125000      2.000000
  0.359375 -0.296875  0.125000      2.000000
  0.390625 -0.296875  0.125000      2.000000
  0.421875 -0.296875  0.125000      2.000000
  0.453125 -0.296875  0.125000      2.000000
  0.484375 -0.296875  0.125000      2.000000
 -0.484375 -0.296875  0.125000      2.000000
 -0.453125 -0.296875  0.125000      2.000000
 -0.421875 -0.296875  0.125000      2.000000
 -0.390625 -0.296875  0.125000      2.000000
 -0.359375 -0.296875  0.125000      2.000000
 -0.328125 -0.296875  0.125000      2.000000
 -0.296875 -0.296875  0.125000      2.000000
 -0.265625 -0.296875  0.125000      2.000000
 -0.234375 -0.296875  0.125000      2.000000
 -0.203125 -0.296875  0.125000      2.000000
 -0.171875 -0.296875  0.125000      2.000000
 -0.140625 -0.296875  0.125000      2.000000
 -0.109375 -0.296875  0.125000      2.000000
 -0.078125 -0.296875  0.125000      2.000000
 -0.046875 -0.296875  0.125000      2.000000
 -0.015625 -0.296875  0.125000      2.000000
  0.015625 -0.265625  0.125000      2.000000
  0.046875 -0.265625  0.125000      2.000000
  0.078125 -0.265625  0.125000      2.000000
  0.109375 -0.265625  0.125000      2.000000
  0.140625 -0.265625  0.125000      2.000000
  0.171875 -0.265625  0.125000      2.000000
  0.203125 -0.265625  0.125000      2.000000
  0.234375 -0.265625  0.125000      2.000000
  0.265625 -0.265625  0.125000      2.000000
  0.296875 -0.265625  0.125000      2.000000
  0.328125 -0.265625  0.125000      2.000000
  0.359375 -0.265625  0.125000      2.000000
  0.390625 -0.265625  0.125000      2.000000
  0.421875 -0.265625  0.125000      2.000000
  0.453125 -0.265625  0.125000      2.000000
  0.484375 -0.265625  0.125000      2.000000
 -0.484375 -0.265625  0.125000      2.000000
 -0.453125 -0.265625  0.125000      2.000000
 -0.421875 -0.265625  0.125000      2.000000
 -0.390625 -0.265625  0.125000      2.000000
 -0.359375 -0.265625  0.125000      2.000000
 -0.328125 -0.265625  0.125000      2.000000
 -0.296875 -0.265625  0.125000      2.000000
 -0.265625 -0.265625  0.125000      2.000000
 -0.234375 -0.265625  0.125000      2.000000
 -0.203125 -0.265625  0.125000      2.000000
 -0.171875 -0.265625  0.125000      2.000000
 -0.140625 -0.265625  0.125000      2.000000
 -0.109375 -0.265625  0.125000      2.000000
 -0.078125 -0.265625  0.125000      2.000000
 -0.046875 -0.265625  0.125000      2.000000
 -0.015625 -0.265625  0.125000      2.000000
  0.015625 -0.234375  0.125000      2.000000
  0.046875 -0.234375  0.125000      2.000000
  0.078125 -0.234375  0.125000      2.000000
  0.109375 -0.234375  0.125000      2.000000
  0.140625 -0.234375  0.125000      2.000000
  0.171875 -0.234375  0.125000      2.000000
  0.203125 -0.234375  0.125000      2.000000
  0.234375 -0.234375  0.125000      2.000000
  0.265625 -0.234375  0.125000      2.000000
  0.296875 -0.234375  0.125000      2.000000
  0.328125 -0.234375  0.125000      2.000000
  0.359375 -0.234375  0.125000      2.000000
  0.390625 -0.234375  0.125000      2.000000
  0.421875 -0.234375  0.125000      2.000000
  0.453125 -0.234375  0.125000      2.000000
  0.484375 -0.234375  0.125000      2.000000
 -0.484375 -0.234375  0.125000      2.000000
 -0.453125 -0.234375  0.125000      2.000000
 -0.421875 -0.234375  0.125000      2.000000
 -0.390625 -0.234375  0.125000      2.000000
 -0.359375 -0.234375  0.125000      2.000000
 -0.328125 -0.234375  0.125000      2.000000
 -0.296875 -0.234375  0.125000      2.000000
 -0.265625 -0.234375  0.125000      2.000000
 -0.234375 -0.234375  0.125000      2.000000
 -0.203125 -0.234375  0.125000      2.000000
 -0.171875 -0.234375  0.125000      2.000000
 -0.140625 -0.234375  0.125000      2.000000
 -0.109375 -0.234375  0.125000      2.000000
 -0.078125 -0.234375  0.125000      2.000000
 -0.046875 -0.234375  0.125000      2.000000
 -0.015625 -0.234375  0.125000      2.000000
  0.015625 -0.203125  0.125000      2.000000
  0.046875 -0.203125  0.125000      2.000000
  0.078125 -0.203125  0.125000      2.000000
  0.109375 -0.203125  0.125000      2.000000
  0.140625 -0.203125  0.125000      2.000000
  0.171875 -0.203125  0.125000      2.000000
  0.203125 -0.203125  0.125000      2.000000
  0.234375 -0.203125  0.125000      2.000000
  0.265625 -0.203125  0.125000      2.000000
  0.296875 -0.203125  0.125000      2.000000
  0.328125 -0.203125  0.125000      2.000000
  0.359375 -0.203125  0.125000      2.000000
  0.390625 -0.203125  0.125000      2.000000
  0.421875 -0.203125  0.125000      2.000000
  0.453125 -0.203125  0.125000      2.000000
  0.484375 -0.203125  0.125000      2.000000
 -0.484375 -0.203125  0.125000      2.000000
 -0.453125 -0.203125  0.125000      2.000000
 -0.421875 -0.203125  0.125000      2.000000
 -0.390625 -0.203125  0.125000      2.000000
 -0.359375 -0.203125  0.125000      2.000000
 -0.328125 -0.203125  0.125000      2.000000
 -0.296875 -0.203125  0.125000      2.000000
 -0.265625 -0.203125  0.125000      2.000000
 -0.234375 -0.203125  0.125000      2.000000
 -0.203125 -0.203125  0.125000      2.000000
 -0.171875 -0.203125  0.125000      2.000000
 -0.140625 -0.203125  0.125000      2.000000
 -0.109375 -0.203125  0.125000      2.000000
 -0.078125 -0.203125  0.125000      2.000000
 -0.046875 -0.203125  0.125000      2.000000
 -0.015625 -0.203125  0.125000      2.000000
  0.015625 -0.171875  0.125000      2.000000
  0.046875 -0.171875  0.125000      2.000000
  0.078125 -0.171875  0.125000      2.000000
  0.109375 -0.171875  0.125000      2.000000
  0.140625 -0.171875  0.125000      2.000000
  0.171875 -0.171875  0.125000      2.000000
  0.203125 -0.171875  0.125000      2.000000
  0.234375 -0.171875  0.125000      2.000000
  0.265625 -0.171875  0.125000      2.000000
  0.296875 -0.171875  0.125000      2.000000
  0.328125 -0.171875  0.125000      2.000000
  0.359375 -0.171875  0.125000      2.000000
  0.390625 -0.171875  0.125000      2.000000
  0.421875 -0.171875  0.125000      2.000000
  0.453125 -0.171875  0.125000      2.000000
  0.484375 -0.171875  0.125000      2.000000
 -0.484375 -0.171875  0.125000      2.000000
 -0.453125 -0.171875  0.125000      2.000000
 -0.421875 -0.171875  0.125000      2.000000
 -0.390625 -0.171875  0.125000      2.000000
 -0.359375 -0.171875  0.125000      2.000000
 -0.328125 -0.171875  0.125000      2.000000
 -0.296875 -0.171875  0.125000      2.000000
 -0.265625 -0.171875  0.125000      2.000000
 -0.234375 -0.171875  0.125000      2.000000
 -0.203125 -0.171875  0.125000      2.000000
 -0.171875 -0.171875  0.125000      2.000000
 -0.140625 -0.171875  0.125000      2.000000
 -0.109375 -0.171875  0.125000      2.000000
 -0.078125 -0.171875  0.125000      2.000000
 -0.046875 -0.171875  0.125000      2.000000
 -0.015625 -0.171875  0.125000      2.000000
  0.015625 -0.140625  0.125000      2.000000
  0.046875 -0.140625  0.125000      2.000000
  0.078125 -0.140625  0.125000      2.000000
  0.109375 -0.140625  0.125000      2.000000
  0.140625 -0.140625  0.125000      2.000000
  0.171875 -0.140625  0.125000      2.000000
  0.203125 -0.140625  0.125000      2.000000
  0.234375 -0.140625  0.125000      2.000000
  0.265625 -0.140625  0.125000      2.000000
  0.296875 -0.140625  0.125000      2.000000
  0.328125 -0.140625  0.125000      2.000000
  0.359375 -0.140625  0.125000      2.000000
  0.390625 -0.140625  0.125000      2.000000
  0.421875 -0.140625  0.125000      2.000000
  0.453125 -0.140625  0.125000      2.000000
  0.484375 -0.140625  0.125000      2.000000
 -0.484375 -0.140625  0.125000      2.000000
 -0.453125 -0.140625  0.125000      2.000000
 -0.421875 -0.140625  0.125000      2.000000
 -0.390625 -0.140625  0.125000      2.000000
 -0.359375 -0.140625  0.125000      2.000000
 -0.328125 -0.140625  0.125000      2.000000
 -0.296875 -0.140625  0.125000      2.000000
 -0.265625 -0.140625  0.125000      2.000000
 -0.234375 -0.140625  0.125000      2.000000
 -0.203125 -0.140625  0.125000      2.000000
 -0.171875 -0.140625  0.125000      2.000000
 -0.140625 -0.140625  0.125000      2.000000
 -0.109375 -0.140625  0.125000      2.000000
 -0.078125 -0.140625  0.125000      2.000000
 -0.046875 -0.140625  0.125000      2.000000
 -0.015625 -0.140625  0.125000      2.000000
  0.015625 -0.109375  0.125000      2.000000
  0.046875 -0.109375  0.125000      2.000000
  0.078125 -0.109375  0.125000      2.000000
  0.109375 -0.109375  0.125000      2.000000
  0.140625 -0.109375  0.125000      2.000000
  0.171875 -0.109375  0.125000      2.000000
  0.203125 -0.109375  0.125000      2.000000
  0.234375 -0.109375  0.125000      2.000000
  0.265625 -0.109375  0.125000      2.000000
  0.296875 -0.109375  0.125000      2.000000
  0.328125 -0.109375  0.125000      2.000000
  0.359375 -0.109375  0.125000      2.000000
  0.390625 -0.109375  0.125000      2.000000
  0.421875 -0.109375  0.125000      2.000000
  0.453125 -0.109375  0.125000      2.000000
  0.484375 -0.109375  0.125000      2.000000
 -0.484375 -0.109375  0.125000      2.000000
 -0.453125 -0.109375  0.125000      2.000000
 -0.421875 -0.109375  0.125000      2.000000
 -0.390625 -0.109375  0.125000      2.000000
 -0.359375 -0.109375  0.125000      2.000000
 -0.328125 -0.109375  0.125000      2.000000
 -0.296875 -0.109375  0.125000      2.000000
 -0.265625 -0.109375  0.125000      2.000000
 -0.234375 -0.109375  0.125000      2.000000
 -0.203125 -0.109375  0.125000      2.000000
 -0.171875 -0.109375  0.125000      2.000000
 -0.140625 -0.109375  0.125000      2.000000
 -0.109375 -0.109375  0.125000      2.000000
 -0.078125 -0.109375  0.125000      2.000000
 -0.046875 -0.109375  0.125000      2.000000
 -0.015625 -0.109375  0.125000      2.000000
  0.015625 -0.078125  0.125000      2.000000
  0.046875 -0.078125  0.125000      2.000000
  0.078125 -0.078125  0.125000      2.000000
  0.109375 -0.078125  0.125000      2.000000
  0.140625 -0.078125  0.125000      2.000000
  0.171875 -0.078125  0.125000      2.000000
  0.203125 -0.078125  0.125000      2.000000
  0.234375 -0.078125  0.125000      2.000000
  0.265625 -0.078125  0.125000      2.000000
  0.296875 -0.078125  0.125000      2.000000
  0.328125 -0.078125  0.125000      2.000000
  0.359375 -0.078125  0.125000      2.000000
  0.390625 -0.078125  0.125000      2.000000
  0.421875 -0.078125  0.125000      2.000000
  0.453125 -0.078125  0.125000      2.000000
  0.484375 -0.078125  0.125000      2.000000
 -0.484375 -0.078125  0.125000      2.000000
 -0.453125 -0.078125  0.125000      2.000000
 -0.421875 -0.078125  0.125000      2.000000
 -0.390625 -0.078125  0.125000      2.000000
 -0.359375 -0.078125  0.125000      2.000000
 -0.328125 -0.078125  0.125000      2.000000
 -0.296875 -0.078125  0.125000      2.000000
 -0.265625 -0.078125  0.125000      2.000000
 -0.234375 -0.078125  0.125000      2.000000
 -0.203125 -0.078125  0.125000      2.000000
 -0.171875 -0.078125  0.125000      2.000000
 -0.140625 -0.078125  0.125000      2.000000
 -0.109375 -0.078125  0.125000      2.000000
 -0.078125 -0.078125  0.125000      2.000000
 -0.046875 -0.078125  0.125000      2.000000
 -0.015625 -0.078125  0.125000      2.000000
  0.015625 -0.046875  0.125000      2.000000
  0.046875 -0.046875  0.125000      2.000000
  0.078125 -0.046875  0.125000      2.000000
  0.109375 -0.046875  0.125000      2.000000
  0.140625 -0.046875  0.125000      2.000000
  0.171875 -0.046875  0.125000      2.000000
  0.203125 -0.046875  0.125000      2.000000
  0.234375 -0.046875  0.125000      2.000000
  0.265625 -0.046875  0.125000      2.000000
  0.296875 -0.046875  0.125000      2.000000
  0.328125 -0.046875  0.125000      2.000000
  0.359375 -0.046875  0.125000      2.000000
  0.390625 -0.046875  0.125000      2.000000
  0.421875 -0.046875  0.125000      2.000000
  0.453125 -0.046875  0.125000      2.000000
  0.484375 -0.046875  0.125000      2.000000
 -0.484375 -0.046875  0.125000      2.000000
 -0.453125 -0.046875  0.125000      2.000000
 -0.421875 -0.046875  0.125000      2.000000
 -0.390625 -0.046875  0.125000      2.000000
 -0.359375 -0.046875  0.125000      2.000000
 -0.328125 -0.046875  0.125000      2.000000
 -0.296875 -0.046875  0.125000      2.000000
 -0.265625 -0.046875  0.125000      2.000000
 -0.234375 -0.046875  0.125000      2.000000
 -0.203125 -0.046875  0.125000      2.000000
 -0.171875 -0.046875  0.125000      2.000000
 -0.140625 -0.046875  0.125000      2.000000
 -0.109375 -0.046875  0.125000      2.000000
 -0.078125 -0.046875  0.125000      2.000000
 -0.046875 -0.046875  0.125000      2.000000
 -0.015625 -0.046875  0.125000      2.000000
  0.015625 -0.015625  0.125000      2.000000
  0.046875 -0.015625  0.125000      2.000000
  0.078125 -0.015625  0.125000      2.000000
  0.109375 -0.015625  0.125000      2.000000
  0.140625 -0.015625  0.125000      2.000000
  0.171875 -0.015625  0.125000      2.000000
  0.203125 -0.015625  0.125000      2.000000
  0.234375 -0.015625  0.125000      2.000000
  0.265625 -0.015625  0.125000      2.000000
  0.296875 -0.015625  0.125000      2.000000
  0.328125 -0.015625  0.125000      2.000000
  0.359375 -0.015625  0.125000      2.000000
  0.390625 -0.015625  0.125000      2.000000
  0.421875 -0.015625  0.125000      2.000000
  0.453125 -0.015625  0.125000      2.000000
  0.484375 -0.015625  0.125000      2.000000
 -0.484375 -0.015625  0.125000      2.000000
 -0.453125 -0.015625  0.125000      2.000000
 -0.421875 -0.015625  0.125000      2.000000
 -0.390625 -0.015625  0.125000      2.000000
 -0.359375 -0.015625  0.125000      2.000000
 -0.328125 -0.015625  0.125000      2.000000
 -0.296875 -0.015625  0.125000      2.000000
 -0.265625 -0.015625  0.125000      2.000000
 -0.234375 -0.015625  0.125000      2.000000
 -0.203125 -0.015625  0.125000      2.000000
 -0.171875 -0.015625  0.125000      2.000000
 -0.140625 -0.015625  0.125000      2.000000
 -0.109375 -0.015625  0.125000      2.000000
 -0.078125 -0.015625  0.125000      2.000000
 -0.046875 -0.015625  0.125000      2.000000
 -0.015625 -0.015625  0.125000      2.000000
  0.015625  0.015625  0.375000      2.000000
  0.046875  0.015625  0.375000      2.000000
  0.078125  0.015625  0.375000      2.000000
  0.109375  0.015625  0.375000      2.000000
  0.140625  0.015625  0.375000      2.000000
  0.171875  0.015625  0.375000      2.000000
  0.203125  0.015625  0.375000      2.000000
  0.234375  0.015625  0.375000      2.000000
  0.265625  0.015625  0.375000      2.000000
  0.296875  0.015625  0.375000      2.000000
  0.328125  0.015625  0.375000      2.000000
  0.359375  0.015625  0.375000      2.000000
  0.390625  0.015625  0.375000      2.000000
  0.421875  0.015625  0.375000      2.000000
  0.453125  0.015625  0.375000      2.000000
  0.484375  0.015625  0.375000      2.000000
 -0.484375  0.015625  0.375000      2.000000
 -0.453125  0.015625  0.375000      2.000000
 -0.421875  0.015625  0.375000      2.000000
 -0.390625  0.015625  0.375000      2.000000
 -0.359375  0.015625  0.375000      2.000000
 -0.328125  0.015625  0.375000      2.000000
 -0.296875  0.015625  0.375000      2.000000
 -0.265625  0.015625  0.375000      2.000000
 -0.234375  0.015625  0.375000      2.000000
 -0.203125  0.015625  0.375000      2.000000
 -0.171875  0.015625  0.375000      2.000000
 -0.140625  0.015625  0.375000      2.000000
 -0.109375  0.015625  0.375000      2.000000
 -0.078125  0.015625  0.375000      2.000000
 -0.046875  0.015625  0.375000      2.000000
 -0.015625  0.015625  0.375000      2.000000
  0.015625  0.046875  0.375000      2.000000
  0.046875  0.046875  0.375000      2.000000
  0.078125  0.046875  0.375000      2.000000
  0.109375  0.046875  0.375000      2.000000
  0.140625  0.046875  0.375000      2.000000
  0.171875  0.046875  0.375000      2.000000
  0.203125  0.046875  0.375000      2.000000
  0.234375  0.046875  0.375000      2.000000
  0.265625  0.046875  0.375000      2.000000
  0.296875  0.046875  0.375000      2.000000
  0.328125  0.046875  0.375000      2.000000
  0.359375  0.046875  0.375000      2.000000
  0.390625  0.046875  0.375000      2.000000
  0.421875  0.046875  0.375000      2.000000
  0.453125  0.046875  0.375000      2.000000
  0.484375  0.046875  0.375000      2.000000
 -0.484375  0.046875  0.375000      2.000000
 -0.453125  0.046875  0.375000      2.000000
 -0.421875  0.046875  0.375000      2.000000
 -0.390625  0.046875  0.375000      2.000000
 -0.359375  0.046875  0.375000      2.000000
 -0.328125  0.046875  0.375000      2.000000
 -0.296875  0.046875  0.375000      2.000000
 -0.265625  0.046875  0.375000      2.000000
 -0.234375  0.046875  0.375000      2.000000
 -0.203125  0.046875  0.375000      2.000000
 -0.171875  0.046875  0.375000      2.000000
 -0.140625  0.046875  0.375000      2.000000
 -0.109375  0.046875  0.375000      2.000000
 -0.078125  0.046875  0.375000      2.000000
 -0.046875  0.046875  0.375000      2.000000
 -0.015625  0.046875  0.375000      2.000000
  0.015625  0.078125  0.375000      2.000000
  0.046875  0.078125  0.375000      2.000000
  0.078125  0.078125  0.375000      2.000000
  0.109375  0.078125  0.375000      2.000000
  0.140625  0.078125  0.375000      2.000000
  0.171875  0.078125  0.375000      2.000000
  0.203125  0.078125  0.375000      2.000000
  0.234375  0.078125  0.375000      2.000000
  0.265625  0.078125  0.375000      2.000000
  0.296875  0.078125  0.375000      2.000000
  0.328125  0.078125  0.375000      2.000000
  0.359375  0.078125  0.375000      2.000000
  0.390625  0.078125  0.375000      2.000000
  0.421875  0.078125  0.375000      2.000000
  0.453125  0.078125  0.375000      2.000000
  0.484375  0.078125  0.375000      2.000000
 -0.484375  0.078125  0.375000      2.000000
 -0.453125  0.078125  0.375000      2.000000
 -0.421875  0.078125  0.375000      2.000000
 -0.390625  0.078125  0.375000      2.000000
 -0.359375  0.078125  0.375000      2.000000
 -0.328125  0.078125  0.375000      2.000000
 -0.296875  0.078125  0.375000      2.000000
 -0.265625  0.078125  0.375000      2.000000
 -0.234375  0.078125  0.375000      2.000000
 -0.203125  0.078125  0.375000      2.000000
 -0.171875  0.078125  0.375000      2.000000
 -0.140625  0.078125  0.375000      2.000000
 -0.109375  0.078125  0.375000      2.000000
 -0.078125  0.078125  0.375000      2.000000
 -0.046875  0.078125  0.375000      2.000000
 -0.015625  0.078125  0.375000      2.000000
  0.015625  0.109375  0.375000      2.000000
  0.046875  0.109375  0.375000      2.000000
  0.078125  0.109375  0.375000      2.000000
  0.109375  0.109375  0.375000      2.000000
  0.140625  0.109375  0.375000      2.000000
  0.171875  0.109375  0.375000      2.000000
  0.203125  0.109375  0.375000      2.000000
  0.234375  0.109375  0.375000      2.000000
  0.265625  0.109375  0.375000      2.000000
  0.296875  0.109375  0.375000      2.000000
  0.328125  0.109375  0.375000      2.000000
  0.359375  0.109375  0.375000      2.000000
  0.390625  0.109375  0.375000      2.000000
  0.421875  0.109375  0.375000      2.000000
  0.453125  0.109375  0.375000      2.000000
  0.484375  0.109375  0.375000      2.000000
 -0.484375  0.109375  0.375000      2.000000
 -0.453125  0.109375  0.375000      2.000000
 -0.421875  0.109375  0.375000      2.000000
 -0.390625  0.109375  0.375000      2.000000
 -0.359375  0.109375  0.375000      2.000000
 -0.328125  0.109375  0.375000      2.000000
 -0.296875  0.109375  0.375000      2.000000
 -0.265625  0.109375  0.375000      2.000000
 -0.234375  0.109375  0.375000      2.000000
 -0.203125  0.109375  0.375000      2.000000
 -0.171875  0.109375  0.375000      2.000000
 -0.140625  0.109375  0.375000      2.000000
 -0.109375  0.109375  0.375000      2.000000
 -0.078125  0.109375  0.375000      2.000000
 -0.046875  0.109375  0.375000      2.000000
 -0.015625  0.109375  0.375000      2.000000
  0.015625  0.140625  0.375000      2.000000
  0.046875  0.140625  0.375000      2.000000
  0.078125  0.140625  0.375000      2.000000
  0.109375  0.140625  0.375000      2.000000
  0.140625  0.140625  0.375000      2.000000
  0.171875  0.140625  0.375000      2.000000
  0.203125  0.140625  0.375000      2.000000
  0.234375  0.140625  0.375000      2.000000
  0.265625  0.140625  0.375000      2.000000
  0.296875  0.140625  0.375000      2.000000
  0.328125  0.140625  0.375000      2.000000
  0.359375  0.140625  0.375000      2.000000
  0.390625  0.140625  0.375000      2.000000
  0.421875  0.140625  0.375000      2.000000
  0.453125  0.140625  0.375000      2.000000
  0.484375  0.140625  0.375000      2.000000
 -0.484375  0.140625  0.375000      2.000000
 -0.453125  0.140625  0.375000      2.000000
 -0.421875  0.140625  0.375000      2.000000
 -0.390625  0.140625  0.375000      2.000000
 -0.359375  0.140625  0.375000      2.000000
 -0.328125  0.140625  0.375000      2.000000
 -0.296875  0.140625  0.375000      2.000000
 -0.265625  0.140625  0.375000      2.000000
 -0.234375  0.140625  0.375000      2.000000
 -0.203125  0.140625  0.375000      2.000000
 -0.171875  0.140625  0.375000      2.000000
 -0.140625  0.140625  0.375000      2.000000
 -0.109375  0.140625  0.375000      2.000000
 -0.078125  0.140625  0.375000      2.000000
 -0.046875  0.140625  0.375000      2.000000
 -0.015625  0.140625  0.375000      2.000000
  0.015625  0.171875  0.375000      2.000000
  0.046875  0.171875  0.375000      2.000000
  0.078125  0.171875  0.375000      2.000000
  0.109375  0.171875  0.375000      2.000000
  0.140625  0.171875  0.375000      2.000000
  0.171875  0.171875  0.375000      2.000000
  0.203125  0.171875  0.375000      2.000000
  0.234375  0.171875  0.375000      2.000000
  0.265625  0.171875  0.375000      2.000000
  0.296875  0.171875  0.375000      2.000000
  0.328125  0.171875  0.375000      2.000000
  0.359375  0.171875  0.375000      2.000000
  0.390625  0.171875  0.375000      2.000000
  0.421875  0.171875  0.375000      2.000000
  0.453125  0.171875  0.375000      2.000000
  0.484375  0.171875  0.375000      2.000000
 -0.484375  0.171875  0.375000      2.000000
 -0.453125  0.171875  0.375000      2.000000
 -0.421875  0.171875  0.375000      2.000000
 -0.390625  0.171875  0.375000      2.000000
 -0.359375  0.171875  0.375000      2.000000
 -0.328125  0.171875  0.375000      2.000000
 -0.296875  0.171875  0.375000      2.000000
 -0.265625  0.171875  0.375000      2.000000
 -0.234375  0.171875  0.375000      2.000000
 -0.203125  0.171875  0.375000      2.000000
 -0.171875  0.171875  0.375000      2.000000
 -0.140625  0.171875  0.375000      2.000000
 -0.109375  0.171875  0.375000      2.000000
 -0.078125  0.171875  0.375000      2.000000
 -0.046875  0.171875  0.375000      2.000000
 -0.015625  0.171875  0.375000      2.000000
  0.015625  0.203125  0.375000      2.000000
  0.046875  0.203125  0.375000      2.000000
  0.078125  0.203125  0.375000      2.000000
  0.109375  0.203125  0.375000      2.000000
  0.140625  0.203125  0.375000      2.000000
  0.171875  0.203125  0.375000      2.000000
  0.203125  0.203125  0.375000      2.000000
  0.234375  0.203125  0.375000      2.000000
  0.265625  0.203125  0.375000      2.000000
  0.296875  0.203125  0.375000      2.000000
  0.328125  0.203125  0.375000      2.000000
  0.359375  0.203125  0.375000      2.000000
  0.390625  0.203125  0.375000      2.000000
  0.421875  0.203125  0.375000      2.000000
  0.453125  0.203125  0.375000      2.000000
  0.484375  0.203125  0.375000      2.000000
 -0.484375  0.203125  0.375000      2.000000
 -0.453125  0.203125  0.375000      2.000000
 -0.421875  0.203125  0.375000      2.000000
 -0.390625  0.203125  0.375000      2.000000
 -0.359375  0.203125  0.375000      2.000000
 -0.328125  0.203125  0.375000      2.000000
 -0.296875  0.203125  0.375000      2.000000
 -0.265625  0.203125  0.375000      2.000000
 -0.234375  0.203125  0.375000      2.000000
 -0.203125  0.203125  0.375000      2.000000
 -0.171875  0.203125  0.375000      2.000000
 -0.140625  0.203125  0.375000      2.000000
 -0.109375  0.203125  0.375000      2.000000
 -0.078125  0.203125  0.375000      2.000000
 -0.046875  0.203125  0.375000      2.000000
 -0.015625  0.203125  0.375000      2.000000
  0.015625  0.234375  0.375000      2.000000
  0.046875  0.234375  0.375000      2.000000
  0.078125  0.234375  0.375000      2.000000
  0.109375  0.234375  0.375000      2.000000
  0.140625  0.234375  0.375000      2.000000
  0.171875  0.234375  0.375000      2.000000
  0.203125  0.234375  0.375000      2.000000
  0.234375  0.234375  0.375000      2.000000
  0.265625  0.234375  0.375000      2.000000
  0.296875  0.234375  0.375000      2.000000
  0.328125  0.234375  0.375000      2.000000
  0.359375  0.234375  0.375000      2.000000
  0.390625  0.234375  0.375000      2.000000
  0.421875  0.234375  0.375000      2.000000
  0.453125  0.234375  0.375000      2.000000
  0.484375  0.234375  0.375000      2.000000
 -0.484375  0.234375  0.375000      2.000000
 -0.453125  0.234375  0.375000      2.000000
 -0.421875  0.234375  0.375000      2.000000
 -0.390625  0.234375  0.375000      2.000000
 -0.359375  0.234375  0.375000      2.000000
 -0.328125  0.234375  0.375000      2.000000
 -0.296875  0.234375  0.375000      2.000000
 -0.265625  0.234375  0.375000      2.000000
 -0.234375  0.234375  0.375000      2.000000
 -0.203125  0.234375  0.375000      2.000000
 -0.171875  0.234375  0.375000      2.000000
 -0.140625  0.234375  0.375000      2.000000
 -0.109375  0.234375  0.375000      2.000000
 -0.078125  0.234375  0.375000      2.000000
 -0.046875  0.234375  0.375000      2.000000
 -0.015625  0.234375  0.375000      2.000000
  0.015625  0.265625  0.375000      2.000000
  0.046875  0.265625  0.375000      2.000000
  0.078125  0.265625  0.375000      2.000000
  0.109375  0.265625  0.375000      2.000000
  0.140625  0.265625  0.375000      2.000000
  0.171875  0.265625  0.375000      2.000000
  0.203125  0.265625  0.375000      2.000000
  0.234375  0.265625  0.375000      2.000000
  0.265625  0.265625  0.375000      2.000000
  0.296875  0.265625  0.375000      2.000000
  0.328125  0.265625  0.375000      2.000000
  0.359375  0.265625  0.375000      2.000000
  0.390625  0.265625  0.375000      2.000000
  0.421875  0.265625  0.375000      2.000000
  0.453125  0.265625  0.375000      2.000000
  0.484375  0.265625  0.375000      2.000000
 -0.484375  0.265625  0.375000      2.000000
 -0.453125  0.265625  0.375000      2.000000
 -0.421875  0.265625  0.375000      2.000000
 -0.390625  0.265625  0.375000      2.000000
 -0.359375  0.265625  0.375000      2.000000
 -0.328125  0.265625  0.375000      2.000000
 -0.296875  0.265625  0.375000      2.000000
 -0.265625  0.265625  0.375000      2.000000
 -0.234375  0.265625  0.375000      2.000000
 -0.203125  0.265625  0.375000      2.000000
 -0.171875  0.265625  0.375000      2.000000
 -0.140625  0.265625  0.375000      2.000000
 -0.109375  0.265625  0.375000      2.000000
 -0.078125  0.265625  0.375000      2.000000
 -0.046875  0.265625  0.375000      2.000000
 -0.015625  0.265625  0.375000      2.000000
  0.015625  0.296875  0.375000      2.000000
  0.046875  0.296875  0.375000      2.000000
  0.078125  0.296875  0.375000      2.000000
  0.109375  0.296875  0.375000      2.000000
  0.140625  0.296875  0.375000      2.000000
  0.171875  0.296875  0.375000      2.000000
  0.203125  0.296875  0.375000      2.000000
  0.234375  0.296875  0.375000      2.000000
  0.265625  0.296875  0.375000      2.000000
  0.296875  0.296875  0.375000      2.000000
  0.328125  0.296875  0.375000      2.000000
  0.359375  0.296875  0.375000      2.000000
  0.390625  0.296875  0.375000      2.000000
  0.421875  0.296875  0.375000      2.000000
  0.453125  0.296875  0.375000      2.000000
  0.484375  0.296875  0.375000      2.000000
 -0.484375  0.296875  0.375000      2.000000
 -0.453125  0.296875  0.375000      2.000000
 -0.421875  0.296875  0.375000      2.000000
 -0.390625  0.296875  0.375000      2.000000
 -0.359375  0.296875  0.375000      2.000000
 -0.328125  0.296875  0.375000      2.000000
 -0.296875  0.296875  0.375000      2.000000
 -0.265625  0.296875  0.375000      2.000000
 -0.234375  0.296875  0.375000      2.000000
 -0.203125  0.296875  0.375000      2.000000
 -0.171875  0.296875  0.375000      2.000000
 -0.140625  0.296875  0.375000      2.000000
 -0.109375  0.296875  0.375000      2.000000
 -0.078125  0.296875  0.375000      2.000000
 -0.046875  0.296875  0.375000      2.000000
 -0.015625  0.296875  0.375000      2.000000
  0.015625  0.328125  0.375000      2.000000
  0.046875  0.328125  0.375000      2.000000
  0.078125  0.328125  0.375000      2.000000
  0.109375  0.328125  0.375000      2.000000
  0.140625  0.328125  0.375000      2.000000
  0.171875  0.328125  0.375000      2.000000
  0.203125  0.328125  0.375000      2.000000
  0.234375  0.328125  0.375000      2.000000
  0.265625  0.328125  0.375000      2.000000
  0.296875  0.328125  0.375000      2.000000
  0.328125  0.328125  0.375000      2.000000
  0.359375  0.328125  0.375000      2.000000
  0.390625  0.328125  0.375000      2.000000
  0.421875  0.328125  0.375000      2.000000
  0.453125  0.328125  0.375000      2.000000
  0.484375  0.328125  0.375000      2.000000
 -0.484375  0.328125  0.375000      2.000000
 -0.453125  0.328125  0.375000      2.000000
 -0.421875  0.328125  0.375000      2.000000
 -0.390625  0.328125  0.375000      2.000000
 -0.359375  0.328125  0.375000      2.000000
 -0.328125  0.328125  0.375000      2.000000
 -0.296875  0.328125  0.375000      2.000000
 -0.265625  0.328125  0.375000      2.000000
 -0.234375  0.328125  0.375000      2.000000
 -0.203125  0.328125  0.375000      2.000000
 -0.171875  0.328125  0.375000      2.000000
 -0.140625  0.328125  0.375000      2.000000
 -0.109375  0.328125  0.375000      2.000000
 -0.078125  0.328125  0.375000      2.000000
 -0.046875  0.328125  0.375000      2.000000
 -0.015625  0.328125  0.375000      2.000000
  0.015625  0.359375  0.375000      2.000000
  0.046875  0.359375  0.375000      2.000000
  0.078125  0.359375  0.375000      2.000000
  0.109375  0.359375  0.375000      2.000000
  0.140625  0.359375  0.375000      2.000000
  0.171875  0.359375  0.375000      2.000000
  0.203125  0.359375  0.375000      2.000000
  0.234375  0.359375  0.375000      2.000000
  0.265625  0.359375  0.375000      2.000000
  0.296875  0.359375  0.375000      2.000000
  0.328125  0.359375  0.375000      2.000000
  0.359375  0.359375  0.375000      2.000000
  0.390625  0.359375  0.375000      2.000000
  0.421875  0.359375  0.375000      2.000000
  0.453125  0.359375  0.375000      2.000000
  0.484375  0.359375  0.375000      2.000000
 -0.484375  0.359375  0.375000      2.000000
 -0.453125  0.359375  0.375000      2.000000
 -0.421875  0.359375  0.375000      2.000000
 -0.390625  0.359375  0.375000      2.000000
 -0.359375  0.359375  0.375000      2.000000
 -0.328125  0.359375  0.375000      2.000000
 -0.296875  0.359375  0.375000      2.000000
 -0.265625  0.359375  0.375000      2.000000
 -0.234375  0.359375  0.375000      2.000000
 -0.203125  0.359375  0.375000      2.000000
 -0.171875  0.359375  0.375000      2.000000
 -0.140625  0.359375  0.375000      2.000000
 -0.109375  0.359375  0.375000      2.000000
 -0.078125  0.359375  0.375000      2.000000
 -0.046875  0.359375  0.375000      2.000000
 -0.015625  0.359375  0.375000      2.000000
  0.015625  0.390625  0.375000      2.000000
  0.046875  0.390625  0.375000      2.000000
  0.078125  0.390625  0.375000      2.000000
  0.109375  0.390625  0.375000      2.000000
  0.140625  0.390625  0.375000      2.000000
  0.171875  0.390625  0.375000      2.000000
  0.203125  0.390625  0.375000      2.000000
  0.234375  0.390625  0.375000      2.000000
  0.265625  0.390625  0.375000      2.000000
  0.296875  0.390625  0.375000      2.000000
  0.328125  0.390625  0.375000      2.000000
  0.359375  0.390625  0.375000      2.000000
  0.390625  0.390625  0.375000      2.000000
  0.421875  0.390625  0.375000      2.000000
  0.453125  0.390625  0.375000      2.000000
  0.484375  0.390625  0.375000      2.000000
 -0.484375  0.390625  0.375000      2.000000
 -0.453125  0.390625  0.375000      2.000000
 -0.421875  0.390625  0.375000      2.000000
 -0.390625  0.390625  0.375000      2.000000
 -0.359375  0.390625  0.375000      2.000000
 -0.328125  0.390625  0.375000      2.000000
 -0.296875  0.390625  0.375000      2.000000
 -0.265625  0.390625  0.375000      2.000000
 -0.234375  0.390625  0.375000      2.000000
 -0.203125  0.390625  0.375000      2.000000
 -0.171875  0.390625  0.375000      2.000000
 -0.140625  0.390625  0.375000      2.000000
 -0.109375  0.390625  0.375000      2.000000
 -0.078125  0.390625  0.375000      2.000000
 -0.046875  0.390625  0.375000      2.000000
 -0.015625  0.390625  0.375000      2.000000
  0.015625  0.421875  0.375000      2.000000
  0.046875  0.421875  0.375000      2.000000
  0.078125  0.421875  0.375000      2.000000
  0.109375  0.421875  0.375000      2.000000
  0.140625  0.421875  0.375000      2.000000
  0.171875  0.421875  0.375000      2.000000
  0.203125  0.421875  0.375000      2.000000
  0.234375  0.421875  0.375000      2.000000
  0.265625  0.421875  0.375000      2.000000
  0.296875  0.421875  0.375000      2.000000
  0.328125  0.421875  0.375000      2.000000
  0.359375  0.421875  0.375000      2.000000
  0.390625  0.421875  0.375000      2.000000
  0.421875  0.421875  0.375000      2.000000
  0.453125  0.421875  0.375000      2.000000
  0.484375  0.421875  0.375000      2.000000
 -0.484375  0.421875  0.375000      2.000000
 -0.453125  0.421875  0.375000      2.000000
 -0.421875  0.421875  0.375000      2.000000
 -0.390625  0.421875  0.375000      2.000000
 -0.359375  0.421875  0.375000      2.000000
 -0.328125  0.421875  0.375000      2.000000
 -0.296875  0.421875  0.375000      2.000000
 -0.265625  0.421875  0.375000      2.000000
 -0.234375  0.421875  0.375000      2.000000
 -0.203125  0.421875  0.375000      2.000000
 -0.171875  0.421875  0.375000      2.000000
 -0.140625  0.421875  0.375000      2.000000
 -0.109375  0.421875  0.375000      2.000000
 -0.078125  0.421875  0.375000      2.000000
 -0.046875  0.421875  0.375000      2.000000
 -0.015625  0.421875  0.375000      2.000000
  0.015625  0.453125  0.375000      2.000000
  0.046875  0.453125  0.375000      2.000000
  0.078125  0.453125  0.375000      2.000000
  0.109375  0.453125  0.375000      2.000000
  0.140625  0.453125  0.375000      2.000000
  0.171875  0.453125  0.375000      2.000000
  0.203125  0.453125  0.375000      2.000000
  0.234375  0.453125  0.375000      2.000000
  0.265625  0.453125  0.375000      2.000000
  0.296875  0.453125  0.375000      2.000000
  0.328125  0.453125  0.375000      2.000000
  0.359375  0.453125  0.375000      2.000000
  0.390625  0.453125  0.375000      2.000000
  0.421875  0.453125  0.375000      2.000000
  0.453125  0.453125  0.375000      2.000000
  0.484375  0.453125  0.375000      2.000000
 -0.484375  0.453125  0.375000      2.000000
 -0.453125  0.453125  0.375000      2.000000
 -0.421875  0.453125  0.375000      2.000000
 -0.390625  0.453125  0.375000      2.000000
 -0.359375  0.453125  0.375000      2.000000
 -0.328125  0.453125  0.375000      2.000000
 -0.296875  0.453125  0.375000      2.000000
 -0.265625  0.453125  0.375000      2.000000
 -0.234375  0.453125  0.375000      2.000000
 -0.203125  0.453125  0.375000      2.000000
 -0.171875  0.453125  0.375000      2.000000
 -0.140625  0.453125  0.375000      2.000000
 -0.109375  0.453125  0.375000      2.000000
 -0.078125  0.453125  0.375000      2.000000
 -0.046875  0.453125  0.375000      2.000000
 -0.015625  0.453125  0.375000      2.000000
  0.015625  0.484375  0.375000      2.000000
  0.046875  0.484375  0.375000      2.000000
  0.078125  0.484375  0.375000      2.000000
  0.109375  0.484375  0.375000      2.000000
  0.140625  0.484375  0.375000      2.000000
  0.171875  0.484375  0.375000      2.000000
  0.203125  0.484375  0.375000      2.000000
  0.234375  0.484375  0.375000      2.000000
  0.265625  0.484375  0.375000      2.000000
  0.296875  0.484375  0.375000      2.000000
  0.328125  0.484375  0.375000      2.000000
  0.359375  0.484375  0.375000      2.000000
  0.390625  0.484375  0.375000      2.000000
  0.421875  0.484375  0.375000      2.000000
  0.453125  0.484375  0.375000      2.000000
  0.484375  0.484375  0.375000      2.000000
 -0.484375  0.484375  0.375000      2.000000
 -0.453125  0.484375  0.375000      2.000000
 -0.421875  0.484375  0.375000      2.000000
 -0.390625  0.484375  0.375000      2.000000
 -0.359375  0.484375  0.375000      2.000000
 -0.328125  0.484375  0.375000      2.000000
 -0.296875  0.484375  0.375000      2.000000
 -0.265625  0.484375  0.375000      2.000000
 -0.234375  0.484375  0.375000      2.000000
 -0.203125  0.484375  0.375000      2.000000
 -0.171875  0.484375  0.375000      2.000000
[...]
     12       5.6891     -0.00000
     13       6.8701     -0.00000
     14       7.5183      0.00000
     15       8.2295      0.00000
     16       8.3407      0.00000
     17       8.7749      0.00000
     18       8.9647      0.00000
     19       9.3994      0.00000
     20       9.7187      0.00000
     21       9.9459      0.00000
     22      10.2891      0.00000
     23      10.8347      0.00000
     24      11.2864      0.00000
     25      11.7082      0.00000
     26      11.9291      0.00000
     27      12.1951      0.00000
     28      12.8989      0.00000
     29      13.0198      0.00000
     30      13.3344      0.00000
     31      14.0964      0.00000
     32      14.9192      0.00000

 k-point  2039 :      -0.2969   -0.0156    0.3750
  band No.  band energies     occupation 
      1      -6.8866      2.00000
      2      -6.1995      2.00000
      3      -5.0843      2.00000
      4      -3.5694      2.00000
      5      -1.6655      2.00000
      6       0.2976      2.00000
      7       2.4379     -0.00929
      8       3.0998     -0.00000
      9       3.6894     -0.00000
     10       4.6031     -0.00000
     11       5.2491     -0.00000
     12       6.0927     -0.00000
     13       7.0682     -0.00000
     14       7.7955      0.00000
     15       7.8287      0.00000
     16       8.5782      0.00000
     17       8.9640      0.00000
     18       9.2372      0.00000
     19       9.3192      0.00000
     20       9.6802      0.00000
     21      10.1874      0.00000
     22      10.6732      0.00000
     23      10.9789      0.00000
     24      11.5158      0.00000
     25      11.8041      0.00000
     26      11.9032      0.00000
     27      12.4866      0.00000
     28      12.9533      0.00000
     29      13.2475      0.00000
     30      13.5341      0.00000
     31      14.7790      0.00000
     32      15.0501      0.00000

 k-point  2040 :      -0.2656   -0.0156    0.3750
  band No.  band energies     occupation 
      1      -7.2943      2.00000
      2      -6.6056      2.00000
      3      -5.4876      2.00000
      4      -3.9687      2.00000
      5      -2.0586      2.00000
      6      -0.0798      2.00000
      7       2.2832     -0.06467
      8       3.8281     -0.00000
      9       4.6142     -0.00000
     10       4.9094     -0.00000
     11       5.6936     -0.00000
     12       6.6580     -0.00000
     13       7.1190     -0.00000
     14       7.3985     -0.00000
     15       8.5163      0.00000
     16       8.7445      0.00000
     17       8.9247      0.00000
     18       8.9904      0.00000
     19       9.5364      0.00000
     20      10.3883      0.00000
     21      10.4792      0.00000
     22      10.9567      0.00000
     23      11.1542      0.00000
     24      11.4803      0.00000
     25      11.8483      0.00000
     26      12.1724      0.00000
     27      12.6745      0.00000
     28      13.4710      0.00000
     29      13.5650      0.00000
     30      13.8531      0.00000
     31      14.7674      0.00000
     32      15.5759      0.00000

 k-point  2041 :      -0.2344   -0.0156    0.3750
  band No.  band energies     occupation 
      1      -7.6565      2.00000
      2      -6.9662      2.00000
      3      -5.8459      2.00000
      4      -4.3238      2.00000
      5      -2.4101      2.00000
      6      -0.4185      2.00000
      7       1.9866      1.16589
      8       4.2037     -0.00000
      9       5.1729     -0.00000
     10       5.6475     -0.00000
     11       6.3633     -0.00000
     12       6.7350     -0.00000
     13       7.0487     -0.00000
     14       8.0780      0.00000
     15       8.2602      0.00000
     16       8.6126      0.00000
     17       9.2174      0.00000
     18       9.6528      0.00000
     19       9.9314      0.00000
     20      10.6123      0.00000
     21      10.8595      0.00000
     22      11.1066      0.00000
     23      11.1624      0.00000
     24      11.8246      0.00000
     25      12.1592      0.00000
     26      12.5769      0.00000
     27      12.9271      0.00000
     28      13.7523      0.00000
     29      13.8638      0.00000
     30      14.5419      0.00000
     31      14.6782      0.00000
     32      15.2616      0.00000

 k-point  2042 :      -0.2031   -0.0156    0.3750
  band No.  band energies     occupation 
      1      -7.9727      2.00000
      2      -7.2811      2.00000
      3      -6.1588      2.00000
      4      -4.6341      2.00000
      5      -2.7183      2.00000
      6      -0.7151      2.00000
      7       1.7052      2.05481
      8       4.0361     -0.00000
      9       5.7685     -0.00000
     10       6.3464     -0.00000
     11       6.6681     -0.00000
     12       6.8459     -0.00000
     13       7.7584      0.00000
     14       7.9695      0.00000
     15       8.3290      0.00000
     16       9.1538      0.00000
     17       9.6053      0.00000
     18      10.1358      0.00000
     19      10.4050      0.00000
     20      10.7814      0.00000
     21      10.9011      0.00000
     22      11.2166      0.00000
     23      11.6201      0.00000
     24      12.3659      0.00000
     25      12.5133      0.00000
     26      12.9252      0.00000
     27      13.4844      0.00000
     28      13.8800      0.00000
     29      14.1816      0.00000
     30      14.5117      0.00000
     31      15.2798      0.00000
     32      15.5777      0.00000

 k-point  2043 :      -0.1719   -0.0156    0.3750
  band No.  band energies     occupation 
      1      -8.2426      2.00000
      2      -7.5500      2.00000
      3      -6.4260      2.00000
      4      -4.8992      2.00000
      5      -2.9822      2.00000
      6      -0.9685      2.00000
      7       1.4587      2.00075
      8       3.8163     -0.00000
      9       5.6728     -0.00000
     10       6.4086     -0.00000
     11       7.3025     -0.00000
     12       7.6589      0.00000
     13       7.7442      0.00000
     14       8.2633      0.00000
     15       8.8768      0.00000
     16       9.9811      0.00000
     17      10.1122      0.00000
     18      10.2907      0.00000
     19      10.6337      0.00000
     20      10.7124      0.00000
     21      11.5470      0.00000
     22      11.6844      0.00000
     23      12.1497      0.00000
     24      12.7980      0.00000
     25      12.8995      0.00000
     26      13.1611      0.00000
     27      13.7990      0.00000
     28      14.2496      0.00000
     29      14.5572      0.00000
     30      14.8058      0.00000
     31      15.4332      0.00000
     32      16.5163      0.00000

 k-point  2044 :      -0.1406   -0.0156    0.3750
  band No.  band energies     occupation 
      1      -8.4660      2.00000
      2      -7.7724      2.00000
      3      -6.6471      2.00000
      4      -5.1186      2.00000
      5      -3.2009      2.00000
      6      -1.1781      2.00000
      7       1.2523      2.00000
      8       3.6202     -0.00000
      9       5.4846     -0.00000
     10       6.2069     -0.00000
     11       7.4281     -0.00000
     12       7.7098      0.00000
     13       8.5509      0.00000
     14       9.0496      0.00000
     15       9.8996      0.00000
     16      10.0043      0.00000
     17      10.4781      0.00000
     18      10.5785      0.00000
     19      11.0623      0.00000
     20      11.3523      0.00000
     21      12.0376      0.00000
     22      12.3267      0.00000
     23      12.7246      0.00000
     24      13.0409      0.00000
     25      13.2737      0.00000
     26      13.4997      0.00000
     27      13.9035      0.00000
     28      14.6028      0.00000
     29      14.9670      0.00000
     30      15.5730      0.00000
     31      15.7860      0.00000
     32      15.9980      0.00000

 k-point  2045 :      -0.1094   -0.0156    0.3750
  band No.  band energies     occupation 
      1      -8.6426      2.00000
      2      -7.9483      2.00000
      3      -6.8219      2.00000
      4      -5.2921      2.00000
      5      -3.3741      2.00000
      6      -1.3439      2.00000
      7       1.0882      2.00000
      8       3.4610     -0.00000
      9       5.3233     -0.00000
     10       6.0391     -0.00000
     11       7.2495     -0.00000
     12       7.6173      0.00000
     13       9.6483      0.00000
     14       9.7612      0.00000
     15      10.0095      0.00000
     16      10.5277      0.00000
     17      10.9718      0.00000
     18      11.1958      0.00000
     19      11.5660      0.00000
     20      12.3726      0.00000
     21      12.5046      0.00000
     22      12.8515      0.00000
     23      12.9441      0.00000
     24      13.4364      0.00000
     25      13.5067      0.00000
     26      13.8922      0.00000
     27      14.3982      0.00000
     28      14.9746      0.00000
     29      15.2173      0.00000
     30      15.3828      0.00000
     31      15.8831      0.00000
     32      15.9024      0.00000

 k-point  2046 :      -0.0781   -0.0156    0.3750
  band No.  band energies     occupation 
      1      -8.7722      2.00000
      2      -8.0775      2.00000
      3      -6.9502      2.00000
      4      -5.4196      2.00000
      5      -3.5014      2.00000
      6      -1.4655      2.00000
      7       0.9673      2.00000
      8       3.3426     -0.00000
      9       5.2015     -0.00000
     10       5.9158     -0.00000
     11       7.1084     -0.00000
     12       7.5291      0.00000
     13       9.6349      0.00000
     14      10.1554      0.00000
     15      10.8065      0.00000
     16      11.4174      0.00000
     17      11.5077      0.00000
     18      12.0908      0.00000
     19      12.2829      0.00000
     20      12.7313      0.00000
     21      13.0568      0.00000
     22      13.2690      0.00000
     23      13.4380      0.00000
     24      13.5297      0.00000
     25      14.0327      0.00000
     26      14.3095      0.00000
     27      14.5027      0.00000
     28      14.9363      0.00000
     29      15.0949      0.00000
     30      15.5661      0.00000
     31      15.8528      0.00000
     32      16.2105      0.00000

 k-point  2047 :      -0.0469   -0.0156    0.3750
  band No.  band energies     occupation 
      1      -8.8548      2.00000
      2      -8.1597      2.00000
      3      -7.0320      2.00000
      4      -5.5007      2.00000
      5      -3.5825      2.00000
      6      -1.5429      2.00000
      7       0.8901      2.00000
      8       3.2667     -0.00000
      9       5.1226     -0.00000
     10       5.8389     -0.00000
     11       7.0104     -0.00000
     12       7.4773      0.00000
     13       9.5368      0.00000
     14      10.1473      0.00000
     15      11.8841      0.00000
     16      12.0711      0.00000
     17      12.4690      0.00000
     18      12.6061      0.00000
     19      12.7235      0.00000
     20      13.2746      0.00000
     21      13.4484      0.00000
     22      13.5230      0.00000
     23      13.6308      0.00000
     24      13.8018      0.00000
     25      14.0224      0.00000
     26      14.3004      0.00000
     27      14.6657      0.00000
     28      14.8895      0.00000
     29      15.2524      0.00000
     30      15.4883      0.00000
     31      16.2433      0.00000
     32      16.3627      0.00000

 k-point  2048 :      -0.0156   -0.0156    0.3750
  band No.  band energies     occupation 
      1      -8.8902      2.00000
      2      -8.1950      2.00000
      3      -7.0670      2.00000
      4      -5.5355      2.00000
      5      -3.6173      2.00000
      6      -1.5761      2.00000
      7       0.8570      2.00000
      8       3.2340     -0.00000
      9       5.0878     -0.00000
     10       5.8089     -0.00000
     11       6.9564     -0.00000
     12       7.4678      0.00000
     13       9.4773      0.00000
     14      10.1536      0.00000
     15      12.6146      0.00000
     16      12.6268      0.00000
     17      12.6756      0.00000
     18      13.1939      0.00000
     19      13.2481      0.00000
     20      13.2512      0.00000
     21      13.3200      0.00000
     22      13.4016      0.00000
     23      13.8249      0.00000
     24      13.8951      0.00000
     25      14.0877      0.00000
     26      14.1529      0.00000
     27      14.7928      0.00000
     28      14.8645      0.00000
     29      15.5668      0.00000
     30      15.6219      0.00000
     31      16.4682      0.00000
     32      16.5746      0.00000


--------------------------------------------------------------------------------------------------------


 soft charge-density along one line, spin component           1
         0         1         2         3         4         5         6         7         8         9
 total charge-density along one line
 
 pseudopotential strength for first ion, spin component:           1
  8.648  14.749   0.000  -0.002   0.000   0.000  -0.006   0.000
 14.749  25.154   0.000  -0.003   0.000   0.000  -0.009   0.001
  0.000   0.000   1.978  -0.000   0.000   5.746  -0.000   0.000
 -0.002  -0.003  -0.000   1.979  -0.000  -0.000   5.748  -0.000
  0.000   0.000   0.000  -0.000   1.978   0.000  -0.000   5.746
  0.000   0.000   5.746  -0.000   0.000  16.578  -0.000   0.000
 -0.006  -0.009  -0.000   5.748  -0.000  -0.000  16.584  -0.000
  0.000   0.001   0.000  -0.000   5.746   0.000  -0.000  16.578
 total augmentation occupancy for first ion, spin component:           1
  3.012  -0.652  -0.008   0.215  -0.013   0.001  -0.032   0.002
 -0.652   0.217   0.004  -0.123   0.008  -0.000   0.011  -0.001
 -0.008   0.004   1.048   0.007  -0.000  -0.066  -0.001   0.000
  0.215  -0.123   0.007   0.855   0.012  -0.001  -0.047  -0.001
 -0.013   0.008  -0.000   0.012   1.048   0.000  -0.001  -0.066
  0.001  -0.000  -0.066  -0.001   0.000   0.005   0.000  -0.000
 -0.032   0.011  -0.001  -0.047  -0.001   0.000   0.003   0.000
  0.002  -0.001   0.000  -0.001  -0.066  -0.000   0.000   0.005


------------------------ aborting loop because EDIFF is reached ----------------------------------------


    CHARGE:  cpu time    2.6561: real time    2.7325
    FORLOC:  cpu time    0.0010: real time    0.0010
    FORNL :  cpu time   21.1594: real time   21.8122
    STRESS:  cpu time   63.3652: real time   65.1582
    FORCOR:  cpu time    0.0140: real time    0.0140
    FORHAR:  cpu time    0.0037: real time    0.0037
    MIXING:  cpu time    0.0013: real time    0.0013
    OFIELD:  cpu time    0.0000: real time    0.0000

  FORCE on cell =-STRESS in cart. coord.  units (eV):
  Direction    XX          YY          ZZ          XY          YZ          ZX
  --------------------------------------------------------------------------------------
  Alpha Z    -0.50980    -0.50980    -0.50980
  Ewald    1321.71153  1328.91949 -1562.02778    -6.28529   102.52963   177.13439
  Hartree  1358.35937  1365.14202 -1354.61683    -5.90353    96.45901   166.65601
  E(xc)     -42.14749   -42.14666   -42.25927    -0.00052     0.00408     0.00754
  Local   -2801.06767 -2815.05213  2796.79126    12.18266  -199.02795  -343.85728
  n-local    95.87412    95.87380    93.95257    -0.00198     0.06656     0.10950
  augment    -5.42639    -5.42668    -5.36484     0.00034    -0.00208    -0.00329
  Kinetic    71.87332    71.89220    74.61524    -0.01547    -0.09748    -0.16958
  Fock        0.00000     0.00000     0.00000     0.00000     0.00000     0.00000
  -------------------------------------------------------------------------------------
  Total      -1.33301    -1.30775     0.58055    -0.02378    -0.06823    -0.12271
  in kB     -12.96626   -12.72056     5.64704    -0.23127    -0.66364    -1.19365
  external pressure =       -6.68 kB  Pullay stress =        0.00 kB


 VOLUME and BASIS-vectors are now :
 -----------------------------------------------------------------------------
  energy-cutoff  :      400.00
  volume of cell :      164.71
      direct lattice vectors                 reciprocal lattice vectors
     2.850621322  0.000000000  0.174455192     0.350809900 -0.201520050 -0.000150066
     1.419972419  2.471784831  0.174455192     0.000000000  0.404565959  0.000000000
     0.010000000  0.000000000 23.376995695    -0.002617984 -0.001515268  0.042778216

  length of vectors
     2.855954575  2.855954575 23.376997834     0.404571302  0.404565959  0.042885029


 FORCES acting on ions
    electron-ion (+dipol)            ewald-force                    non-local-force                 convergence-correction
 -----------------------------------------------------------------------------------------------
   -.141E+02 -.816E+01 0.230E+03   0.140E+02 0.811E+01 -.229E+03   0.884E-01 0.505E-01 -.139E+01   -.106E-05 -.616E-06 0.175E-04
   -.703E+01 -.407E+01 0.115E+03   0.704E+01 0.407E+01 -.115E+03   -.107E-01 -.616E-02 0.108E+00   0.273E-05 0.158E-05 -.443E-04
   0.325E-14 0.547E-14 0.711E-14   -.266E-14 0.444E-15 0.000E+00   -.191E-24 0.000E+00 0.000E+00   -.826E-15 -.542E-15 0.144E-13
   0.703E+01 0.407E+01 -.115E+03   -.704E+01 -.407E+01 0.115E+03   0.107E-01 0.616E-02 -.108E+00   -.273E-05 -.158E-05 0.443E-04
   0.141E+02 0.816E+01 -.230E+03   -.140E+02 -.811E+01 0.229E+03   -.884E-01 -.505E-01 0.139E+01   0.106E-05 0.616E-06 -.175E-04
 -----------------------------------------------------------------------------------------------
   0.294E-13 0.625E-13 -.591E-14   -.888E-14 -.178E-14 0.284E-13   0.139E-16 0.000E+00 0.000E+00   -.508E-14 -.296E-14 0.830E-13
 
 
 POSITION                                       TOTAL-FORCE (eV/Angst)
 -----------------------------------------------------------------------------------
      2.77639      1.60666      1.39564         0.006571      0.003504     -0.097759
      4.05856      2.34820      3.83801        -0.004394     -0.002575      0.066332
      1.07015      0.61795      5.93148         0.000000      0.000000      0.000000
      2.35233      1.35948      8.37385         0.004394      0.002575     -0.066332
      3.63450      2.10102     10.81622        -0.006571     -0.003504      0.097759
 -----------------------------------------------------------------------------------
    total drift:                                0.000000      0.000000      0.000000


--------------------------------------------------------------------------------------------------------



  FREE ENERGIE OF THE ION-ELECTRON SYSTEM (eV)
  ---------------------------------------------------
  free  energy   TOTEN  =       -17.99256587 eV

  energy  without entropy=      -17.99354091  energy(sigma->0) =      -17.99289088
 


--------------------------------------------------------------------------------------------------------


    POTLOK:  cpu time    0.0162: real time    0.0162


--------------------------------------------------------------------------------------------------------


     LOOP+:  cpu time 1572.8425: real time 1618.6927
    4ORBIT:  cpu time    0.0000: real time    0.0000

 total amount of memory used by VASP MPI-rank0   138389. kBytes
=======================================================================

   base      :      30000. kBytes
   nonlr-proj:       1820. kBytes
   fftplans  :       1043. kBytes
   grid      :       3800. kBytes
   one-center:         15. kBytes
   wavefun   :     101711. kBytes
 
  
  
 General timing and accounting informations for this job:
 ========================================================
  
                  Total CPU time used (sec):     1600.922
                            User time (sec):     1395.670
                          System time (sec):      205.252
                         Elapsed time (sec):     1649.750
  
                   Maximum memory used (kb):      536760.
                   Average memory used (kb):           0.
  
                          Minor page faults:       569047
                          Major page faults:           92
                 Voluntary context switches:          931
