<?xml version="1.0" encoding="ISO-8859-1"?>
<modeling>
 <generator>
  <i name="program" type="string">vasp </i>
  <i name="version" type="string">5.4.4.18Apr17-6-g9f103f2a35  </i>
  <i name="subversion" type="string">(build Nov 07 2022 11:18:25) complex            parallel </i>
  <i name="platform" type="string">LinuxIFC </i>
  <i name="date" type="string">2024 05 28 </i>
  <i name="time" type="string">09:34:20 </i>
 </generator>
 <incar>
  <i type="string" name="SYSTEM"> Al fcc relaxation</i>
  <i type="string" name="PREC">accurate</i>
  <i type="string" name="ALGO"> Fast</i>
  <i type="int" name="NELM">    60</i>
  <i type="int" name="NELMIN">     4</i>
  <i type="int" name="IBRION">     2</i>
  <i name="EDIFF">      0.00000100</i>
  <i type="int" name="NSW">     0</i>
  <i type="int" name="ISIF">     3</i>
  <i name="ENCUT">    400.00000000</i>
  <i type="string" name="LREAL"> Auto</i>
  <i type="int" name="ISMEAR">     1</i>
  <i name="SIGMA">      0.20000000</i>
  <i name="KSPACING">      0.08000000</i>
  <i type="logical" name="LWAVE"> F  </i>
  <i type="logical" name="LCHARG"> F  </i>
  <v type="int" name="KPOINT_BSE">    -1     0     0     0</v>
  <i type="int" name="NELM">    60</i>
 </incar>
 <structure name="primitive_cell" >
  <crystal>
   <varray name="basis" >
    <v>       2.85062132       0.00000000       0.17445519 </v>
    <v>       1.41997242       2.47178483       0.17445519 </v>
    <v>       0.01000000       0.00000000      23.37699570 </v>
   </varray>
   <i name="volume">    164.71286415 </i>
   <varray name="rec_basis" >
    <v>       0.35080990      -0.20152005      -0.00015007 </v>
    <v>       0.00000000       0.40456596       0.00000000 </v>
    <v>      -0.00261798      -0.00151527       0.04277822 </v>
   </varray>
  </crystal>
  <varray name="positions" >
   <v>      -0.35000000      -0.35000000       0.05000000 </v>
   <v>      -0.05000000      -0.05000000       0.15000000 </v>
   <v>       0.25000000       0.25000000       0.25000000 </v>
   <v>      -0.45000000      -0.45000000       0.35000000 </v>
   <v>      -0.15000000      -0.15000000       0.45000000 </v>
  </varray>
 </structure>
 <varray name="primitive_index" >
  <v type="int" >        1 </v>
  <v type="int" >        2 </v>
  <v type="int" >        3 </v>
  <v type="int" >        4 </v>
  <v type="int" >        5 </v>
 </varray>
 <kpoints>
  <generation param="Monkhorst-Pack">
   <v type="int" name="divisions">      32       32        4 </v>
   <v name="usershift">      0.00000000       0.00000000       0.00000000 </v>
   <v name="genvec1">      0.03125000      -0.00000000       0.00000000 </v>
   <v name="genvec2">      0.00000000       0.03125000       0.00000000 </v>
   <v name="genvec3">     -0.00000000       0.00000000       0.25000000 </v>
   <v name="shift">      0.50000000       0.50000000       0.50000000 </v>
  </generation>
  <varray name="kpointlist" >
   <v>       0.01562500       0.01562500       0.12500000 </v>
   <v>       0.04687500       0.01562500       0.12500000 </v>
   <v>       0.07812500       0.01562500       0.12500000 </v>
   <v>       0.10937500       0.01562500       0.12500000 </v>
   <v>       0.14062500       0.01562500       0.12500000 </v>
   <v>       0.17187500       0.01562500       0.12500000 </v>
   <v>       0.20312500       0.01562500       0.12500000 </v>
   <v>       0.23437500       0.01562500       0.12500000 </v>
   <v>       0.26562500       0.01562500       0.12500000 </v>
   <v>       0.29687500       0.01562500       0.12500000 </v>
   <v>       0.32812500       0.01562500       0.12500000 </v>
   <v>       0.35937500       0.01562500       0.12500000 </v>
   <v>       0.39062500       0.01562500       0.12500000 </v>
   <v>       0.42187500       0.01562500       0.12500000 </v>
   <v>       0.45312500       0.01562500       0.12500000 </v>
   <v>       0.48437500       0.01562500       0.12500000 </v>
   <v>      -0.48437500       0.01562500       0.12500000 </v>
   <v>      -0.45312500       0.01562500       0.12500000 </v>
   <v>      -0.42187500       0.01562500       0.12500000 </v>
   <v>      -0.39062500       0.01562500       0.12500000 </v>
   <v>      -0.35937500       0.01562500       0.12500000 </v>
   <v>      -0.32812500       0.01562500       0.12500000 </v>
   <v>      -0.29687500       0.01562500       0.12500000 </v>
   <v>      -0.26562500       0.01562500       0.12500000 </v>
   <v>      -0.23437500       0.01562500       0.12500000 </v>
   <v>      -0.20312500       0.01562500       0.12500000 </v>
   <v>      -0.17187500       0.01562500       0.12500000 </v>
   <v>      -0.14062500       0.01562500       0.12500000 </v>
   <v>      -0.10937500       0.01562500       0.12500000 </v>
   <v>      -0.07812500       0.01562500       0.12500000 </v>
   <v>      -0.04687500       0.01562500       0.12500000 </v>
   <v>      -0.01562500       0.01562500       0.12500000 </v>
   <v>       0.01562500       0.04687500       0.12500000 </v>
   <v>       0.04687500       0.04687500       0.12500000 </v>
   <v>       0.07812500       0.04687500       0.12500000 </v>
   <v>       0.10937500       0.04687500       0.12500000 </v>
   <v>       0.14062500       0.04687500       0.12500000 </v>
   <v>       0.17187500       0.04687500       0.12500000 </v>
   <v>       0.20312500       0.04687500       0.12500000 </v>
   <v>       0.23437500       0.04687500       0.12500000 </v>
   <v>       0.26562500       0.04687500       0.12500000 </v>
   <v>       0.29687500       0.04687500       0.12500000 </v>
   <v>       0.32812500       0.04687500       0.12500000 </v>
   <v>       0.35937500       0.04687500       0.12500000 </v>
   <v>       0.39062500       0.04687500       0.12500000 </v>
   <v>       0.42187500       0.04687500       0.12500000 </v>
   <v>       0.45312500       0.04687500       0.12500000 </v>
   <v>       0.48437500       0.04687500       0.12500000 </v>
   <v>      -0.48437500       0.04687500       0.12500000 </v>
   <v>      -0.45312500       0.04687500       0.12500000 </v>
   <v>      -0.42187500       0.04687500       0.12500000 </v>
   <v>      -0.39062500       0.04687500       0.12500000 </v>
   <v>      -0.35937500       0.04687500       0.12500000 </v>
   <v>      -0.32812500       0.04687500       0.12500000 </v>
   <v>      -0.29687500       0.04687500       0.12500000 </v>
   <v>      -0.26562500       0.04687500       0.12500000 </v>
   <v>      -0.23437500       0.04687500       0.12500000 </v>
   <v>      -0.20312500       0.04687500       0.12500000 </v>
   <v>      -0.17187500       0.04687500       0.12500000 </v>
   <v>      -0.14062500       0.04687500       0.12500000 </v>
   <v>      -0.10937500       0.04687500       0.12500000 </v>
   <v>      -0.07812500       0.04687500       0.12500000 </v>
   <v>      -0.04687500       0.04687500       0.12500000 </v>
   <v>      -0.01562500       0.04687500       0.12500000 </v>
   <v>       0.01562500       0.07812500       0.12500000 </v>
   <v>       0.04687500       0.07812500       0.12500000 </v>
   <v>       0.07812500       0.07812500       0.12500000 </v>
   <v>       0.10937500       0.07812500       0.12500000 </v>
   <v>       0.14062500       0.07812500       0.12500000 </v>
   <v>       0.17187500       0.07812500       0.12500000 </v>
   <v>       0.20312500       0.07812500       0.12500000 </v>
   <v>       0.23437500       0.07812500       0.12500000 </v>
   <v>       0.26562500       0.07812500       0.12500000 </v>
   <v>       0.29687500       0.07812500       0.12500000 </v>
   <v>       0.32812500       0.07812500       0.12500000 </v>
   <v>       0.35937500       0.07812500       0.12500000 </v>
   <v>       0.39062500       0.07812500       0.12500000 </v>
   <v>       0.42187500       0.07812500       0.12500000 </v>
   <v>       0.45312500       0.07812500       0.12500000 </v>
   <v>       0.48437500       0.07812500       0.12500000 </v>
   <v>      -0.48437500       0.07812500       0.12500000 </v>
   <v>      -0.45312500       0.07812500       0.12500000 </v>
   <v>      -0.42187500       0.07812500       0.12500000 </v>
   <v>      -0.39062500       0.07812500       0.12500000 </v>
   <v>      -0.35937500       0.07812500       0.12500000 </v>
   <v>      -0.32812500       0.07812500       0.12500000 </v>
   <v>      -0.29687500       0.07812500       0.12500000 </v>
   <v>      -0.26562500       0.07812500       0.12500000 </v>
   <v>      -0.23437500       0.07812500       0.12500000 </v>
   <v>      -0.20312500       0.07812500       0.12500000 </v>
   <v>      -0.17187500       0.07812500       0.12500000 </v>
   <v>      -0.14062500       0.07812500       0.12500000 </v>
   <v>      -0.10937500       0.07812500       0.12500000 </v>
   <v>      -0.07812500       0.07812500       0.12500000 </v>
   <v>      -0.04687500       0.07812500       0.12500000 </v>
   <v>      -0.01562500       0.07812500       0.12500000 </v>
   <v>       0.01562500       0.10937500       0.12500000 </v>
   <v>       0.04687500       0.10937500       0.12500000 </v>
   <v>       0.07812500       0.10937500       0.12500000 </v>
   <v>       0.10937500       0.10937500       0.12500000 </v>
   <v>       0.14062500       0.10937500       0.12500000 </v>
   <v>       0.17187500       0.10937500       0.12500000 </v>
   <v>       0.20312500       0.10937500       0.12500000 </v>
   <v>       0.23437500       0.10937500       0.12500000 </v>
   <v>       0.26562500       0.10937500       0.12500000 </v>
   <v>       0.29687500       0.10937500       0.12500000 </v>
   <v>       0.32812500       0.10937500       0.12500000 </v>
   <v>       0.35937500       0.10937500       0.12500000 </v>
   <v>       0.39062500       0.10937500       0.12500000 </v>
   <v>       0.42187500       0.10937500       0.12500000 </v>
   <v>       0.45312500       0.10937500       0.12500000 </v>
   <v>       0.48437500       0.10937500       0.12500000 </v>
   <v>      -0.48437500       0.10937500       0.12500000 </v>
   <v>      -0.45312500       0.10937500       0.12500000 </v>
   <v>      -0.42187500       0.10937500       0.12500000 </v>
   <v>      -0.39062500       0.10937500       0.12500000 </v>
   <v>      -0.35937500       0.10937500       0.12500000 </v>
   <v>      -0.32812500       0.10937500       0.12500000 </v>
   <v>      -0.29687500       0.10937500       0.12500000 </v>
   <v>      -0.26562500       0.10937500       0.12500000 </v>
   <v>      -0.23437500       0.10937500       0.12500000 </v>
   <v>      -0.20312500       0.10937500       0.12500000 </v>
   <v>      -0.17187500       0.10937500       0.12500000 </v>
   <v>      -0.14062500       0.10937500       0.12500000 </v>
   <v>      -0.10937500       0.10937500       0.12500000 </v>
   <v>      -0.07812500       0.10937500       0.12500000 </v>
   <v>      -0.04687500       0.10937500       0.12500000 </v>
   <v>      -0.01562500       0.10937500       0.12500000 </v>
   <v>       0.01562500       0.14062500       0.12500000 </v>
   <v>       0.04687500       0.14062500       0.12500000 </v>
   <v>       0.07812500       0.14062500       0.12500000 </v>
   <v>       0.10937500       0.14062500       0.12500000 </v>
   <v>       0.14062500       0.14062500       0.12500000 </v>
   <v>       0.17187500       0.14062500       0.12500000 </v>
   <v>       0.20312500       0.14062500       0.12500000 </v>
   <v>       0.23437500       0.14062500       0.12500000 </v>
   <v>       0.26562500       0.14062500       0.12500000 </v>
   <v>       0.29687500       0.14062500       0.12500000 </v>
   <v>       0.32812500       0.14062500       0.12500000 </v>
   <v>       0.35937500       0.14062500       0.12500000 </v>
   <v>       0.39062500       0.14062500       0.12500000 </v>
   <v>       0.42187500       0.14062500       0.12500000 </v>
   <v>       0.45312500       0.14062500       0.12500000 </v>
   <v>       0.48437500       0.14062500       0.12500000 </v>
   <v>      -0.48437500       0.14062500       0.12500000 </v>
   <v>      -0.45312500       0.14062500       0.12500000 </v>
   <v>      -0.42187500       0.14062500       0.12500000 </v>
   <v>      -0.39062500       0.14062500       0.12500000 </v>
   <v>      -0.35937500       0.14062500       0.12500000 </v>
   <v>      -0.32812500       0.14062500       0.12500000 </v>
   <v>      -0.29687500       0.14062500       0.12500000 </v>
   <v>      -0.26562500       0.14062500       0.12500000 </v>
   <v>      -0.23437500       0.14062500       0.12500000 </v>
   <v>      -0.20312500       0.14062500       0.12500000 </v>
   <v>      -0.17187500       0.14062500       0.12500000 </v>
   <v>      -0.14062500       0.14062500       0.12500000 </v>
   <v>      -0.10937500       0.14062500       0.12500000 </v>
   <v>      -0.07812500       0.14062500       0.12500000 </v>
   <v>      -0.04687500       0.14062500       0.12500000 </v>
   <v>      -0.01562500       0.14062500       0.12500000 </v>
   <v>       0.01562500       0.17187500       0.12500000 </v>
   <v>       0.04687500       0.17187500       0.12500000 </v>
   <v>       0.07812500       0.17187500       0.12500000 </v>
   <v>       0.10937500       0.17187500       0.12500000 </v>
   <v>       0.14062500       0.17187500       0.12500000 </v>
   <v>       0.17187500       0.17187500       0.12500000 </v>
   <v>       0.20312500       0.17187500       0.12500000 </v>
   <v>       0.23437500       0.17187500       0.12500000 </v>
   <v>       0.26562500       0.17187500       0.12500000 </v>
   <v>       0.29687500       0.17187500       0.12500000 </v>
   <v>       0.32812500       0.17187500       0.12500000 </v>
   <v>       0.35937500       0.17187500       0.12500000 </v>
   <v>       0.39062500       0.17187500       0.12500000 </v>
   <v>       0.42187500       0.17187500       0.12500000 </v>
   <v>       0.45312500       0.17187500       0.12500000 </v>
   <v>       0.48437500       0.17187500       0.12500000 </v>
   <v>      -0.48437500       0.17187500       0.12500000 </v>
   <v>      -0.45312500       0.17187500       0.12500000 </v>
   <v>      -0.42187500       0.17187500       0.12500000 </v>
   <v>      -0.39062500       0.17187500       0.12500000 </v>
   <v>      -0.35937500       0.17187500       0.12500000 </v>
   <v>      -0.32812500       0.17187500       0.12500000 </v>
   <v>      -0.29687500       0.17187500       0.12500000 </v>
   <v>      -0.26562500       0.17187500       0.12500000 </v>
   <v>      -0.23437500       0.17187500       0.12500000 </v>
   <v>      -0.20312500       0.17187500       0.12500000 </v>
   <v>      -0.17187500       0.17187500       0.12500000 </v>
   <v>      -0.14062500       0.17187500       0.12500000 </v>
   <v>      -0.10937500       0.17187500       0.12500000 </v>
   <v>      -0.07812500       0.17187500       0.12500000 </v>
   <v>      -0.04687500       0.17187500       0.12500000 </v>
   <v>      -0.01562500       0.17187500       0.12500000 </v>
   <v>       0.01562500       0.20312500       0.12500000 </v>
   <v>       0.04687500       0.20312500       0.12500000 </v>
   <v>       0.07812500       0.20312500       0.12500000 </v>
   <v>       0.10937500       0.20312500       0.12500000 </v>
   <v>       0.14062500       0.20312500       0.12500000 </v>
   <v>       0.17187500       0.20312500       0.12500000 </v>
   <v>       0.20312500       0.20312500       0.12500000 </v>
   <v>       0.23437500       0.20312500       0.12500000 </v>
   <v>       0.26562500       0.20312500       0.12500000 </v>
   <v>       0.29687500       0.20312500       0.12500000 </v>
   <v>       0.32812500       0.20312500       0.12500000 </v>
   <v>       0.35937500       0.20312500       0.12500000 </v>
   <v>       0.39062500       0.20312500       0.12500000 </v>
   <v>       0.42187500       0.20312500       0.12500000 </v>
   <v>       0.45312500       0.20312500       0.12500000 </v>
   <v>       0.48437500       0.20312500       0.12500000 </v>
   <v>      -0.48437500       0.20312500       0.12500000 </v>
   <v>      -0.45312500       0.20312500       0.12500000 </v>
   <v>      -0.42187500       0.20312500       0.12500000 </v>
   <v>      -0.39062500       0.20312500       0.12500000 </v>
   <v>      -0.35937500       0.20312500       0.12500000 </v>
   <v>      -0.32812500       0.20312500       0.12500000 </v>
   <v>      -0.29687500       0.20312500       0.12500000 </v>
   <v>      -0.26562500       0.20312500       0.12500000 </v>
   <v>      -0.23437500       0.20312500       0.12500000 </v>
   <v>      -0.20312500       0.20312500       0.12500000 </v>
   <v>      -0.17187500       0.20312500       0.12500000 </v>
   <v>      -0.14062500       0.20312500       0.12500000 </v>
   <v>      -0.10937500       0.20312500       0.12500000 </v>
   <v>      -0.07812500       0.20312500       0.12500000 </v>
   <v>      -0.04687500       0.20312500       0.12500000 </v>
   <v>      -0.01562500       0.20312500       0.12500000 </v>
   <v>       0.01562500       0.23437500       0.12500000 </v>
   <v>       0.04687500       0.23437500       0.12500000 </v>
   <v>       0.07812500       0.23437500       0.12500000 </v>
   <v>       0.10937500       0.23437500       0.12500000 </v>
   <v>       0.14062500       0.23437500       0.12500000 </v>
   <v>       0.17187500       0.23437500       0.12500000 </v>
   <v>       0.20312500       0.23437500       0.12500000 </v>
   <v>       0.23437500       0.23437500       0.12500000 </v>
   <v>       0.26562500       0.23437500       0.12500000 </v>
   <v>       0.29687500       0.23437500       0.12500000 </v>
   <v>       0.32812500       0.23437500       0.12500000 </v>
   <v>       0.35937500       0.23437500       0.12500000 </v>
   <v>       0.39062500       0.23437500       0.12500000 </v>
   <v>       0.42187500       0.23437500       0.12500000 </v>
   <v>       0.45312500       0.23437500       0.12500000 </v>
   <v>       0.48437500       0.23437500       0.12500000 </v>
   <v>      -0.48437500       0.23437500       0.12500000 </v>
   <v>      -0.45312500       0.23437500       0.12500000 </v>
   <v>      -0.42187500       0.23437500       0.12500000 </v>
   <v>      -0.39062500       0.23437500       0.12500000 </v>
   <v>      -0.35937500       0.23437500       0.12500000 </v>
   <v>      -0.32812500       0.23437500       0.12500000 </v>
   <v>      -0.29687500       0.23437500       0.12500000 </v>
   <v>      -0.26562500       0.23437500       0.12500000 </v>
   <v>      -0.23437500       0.23437500       0.12500000 </v>
   <v>      -0.20312500       0.23437500       0.12500000 </v>
   <v>      -0.17187500       0.23437500       0.12500000 </v>
   <v>      -0.14062500       0.23437500       0.12500000 </v>
   <v>      -0.10937500       0.23437500       0.12500000 </v>
   <v>      -0.07812500       0.23437500       0.12500000 </v>
   <v>      -0.04687500       0.23437500       0.12500000 </v>
   <v>      -0.01562500       0.23437500       0.12500000 </v>
   <v>       0.01562500       0.26562500       0.12500000 </v>
   <v>       0.04687500       0.26562500       0.12500000 </v>
   <v>       0.07812500       0.26562500       0.12500000 </v>
   <v>       0.10937500       0.26562500       0.12500000 </v>
   <v>       0.14062500       0.26562500       0.12500000 </v>
   <v>       0.17187500       0.26562500       0.12500000 </v>
   <v>       0.20312500       0.26562500       0.12500000 </v>
   <v>       0.23437500       0.26562500       0.12500000 </v>
   <v>       0.26562500       0.26562500       0.12500000 </v>
   <v>       0.29687500       0.26562500       0.12500000 </v>
   <v>       0.32812500       0.26562500       0.12500000 </v>
   <v>       0.35937500       0.26562500       0.12500000 </v>
   <v>       0.39062500       0.26562500       0.12500000 </v>
   <v>       0.42187500       0.26562500       0.12500000 </v>
   <v>       0.45312500       0.26562500       0.12500000 </v>
   <v>       0.48437500       0.26562500       0.12500000 </v>
   <v>      -0.48437500       0.26562500       0.12500000 </v>
   <v>      -0.45312500       0.26562500       0.12500000 </v>
   <v>      -0.42187500       0.26562500       0.12500000 </v>
   <v>      -0.39062500       0.26562500       0.12500000 </v>
   <v>      -0.35937500       0.26562500       0.12500000 </v>
   <v>      -0.32812500       0.26562500       0.12500000 </v>
   <v>      -0.29687500       0.26562500       0.12500000 </v>
   <v>      -0.26562500       0.26562500       0.12500000 </v>
   <v>      -0.23437500       0.26562500       0.12500000 </v>
   <v>      -0.20312500       0.26562500       0.12500000 </v>
   <v>      -0.17187500       0.26562500       0.12500000 </v>
   <v>      -0.14062500       0.26562500       0.12500000 </v>
   <v>      -0.10937500       0.26562500       0.12500000 </v>
   <v>      -0.07812500       0.26562500       0.12500000 </v>
   <v>      -0.04687500       0.26562500       0.12500000 </v>
   <v>      -0.01562500       0.26562500       0.12500000 </v>
   <v>       0.01562500       0.29687500       0.12500000 </v>
   <v>       0.04687500       0.29687500       0.12500000 </v>
   <v>       0.07812500       0.29687500       0.12500000 </v>
   <v>       0.10937500       0.29687500       0.12500000 </v>
   <v>       0.14062500       0.29687500       0.12500000 </v>
   <v>       0.17187500       0.29687500       0.12500000 </v>
   <v>       0.20312500       0.29687500       0.12500000 </v>
   <v>       0.23437500       0.29687500       0.12500000 </v>
   <v>       0.26562500       0.29687500       0.12500000 </v>
   <v>       0.29687500       0.29687500       0.12500000 </v>
   <v>       0.32812500       0.29687500       0.12500000 </v>
   <v>       0.35937500       0.29687500       0.12500000 </v>
   <v>       0.39062500       0.29687500       0.12500000 </v>
   <v>       0.42187500       0.29687500       0.12500000 </v>
   <v>       0.45312500       0.29687500       0.12500000 </v>
   <v>       0.48437500       0.29687500       0.12500000 </v>
   <v>      -0.48437500       0.29687500       0.12500000 </v>
   <v>      -0.45312500       0.29687500       0.12500000 </v>
   <v>      -0.42187500       0.29687500       0.12500000 </v>
   <v>      -0.39062500       0.29687500       0.12500000 </v>
   <v>      -0.35937500       0.29687500       0.12500000 </v>
   <v>      -0.32812500       0.29687500       0.12500000 </v>
   <v>      -0.29687500       0.29687500       0.12500000 </v>
   <v>      -0.26562500       0.29687500       0.12500000 </v>
   <v>      -0.23437500       0.29687500       0.12500000 </v>
   <v>      -0.20312500       0.29687500       0.12500000 </v>
   <v>      -0.17187500       0.29687500       0.12500000 </v>
   <v>      -0.14062500       0.29687500       0.12500000 </v>
   <v>      -0.10937500       0.29687500       0.12500000 </v>
   <v>      -0.07812500       0.29687500       0.12500000 </v>
   <v>      -0.04687500       0.29687500       0.12500000 </v>
   <v>      -0.01562500       0.29687500       0.12500000 </v>
   <v>       0.01562500       0.32812500       0.12500000 </v>
   <v>       0.04687500       0.32812500       0.12500000 </v>
   <v>       0.07812500       0.32812500       0.12500000 </v>
   <v>       0.10937500       0.32812500       0.12500000 </v>
   <v>       0.14062500       0.32812500       0.12500000 </v>
   <v>       0.17187500       0.32812500       0.12500000 </v>
   <v>       0.20312500       0.32812500       0.12500000 </v>
   <v>       0.23437500       0.32812500       0.12500000 </v>
   <v>       0.26562500       0.32812500       0.12500000 </v>
   <v>       0.29687500       0.32812500       0.12500000 </v>
   <v>       0.32812500       0.32812500       0.12500000 </v>
   <v>       0.35937500       0.32812500       0.12500000 </v>
   <v>       0.39062500       0.32812500       0.12500000 </v>
   <v>       0.42187500       0.32812500       0.12500000 </v>
   <v>       0.45312500       0.32812500       0.12500000 </v>
   <v>       0.48437500       0.32812500       0.12500000 </v>
   <v>      -0.48437500       0.32812500       0.12500000 </v>
   <v>      -0.45312500       0.32812500       0.12500000 </v>
   <v>      -0.42187500       0.32812500       0.12500000 </v>
   <v>      -0.39062500       0.32812500       0.12500000 </v>
   <v>      -0.35937500       0.32812500       0.12500000 </v>
   <v>      -0.32812500       0.32812500       0.12500000 </v>
   <v>      -0.29687500       0.32812500       0.12500000 </v>
   <v>      -0.26562500       0.32812500       0.12500000 </v>
   <v>      -0.23437500       0.32812500       0.12500000 </v>
   <v>      -0.20312500       0.32812500       0.12500000 </v>
   <v>      -0.17187500       0.32812500       0.12500000 </v>
   <v>      -0.14062500       0.32812500       0.12500000 </v>
   <v>      -0.10937500       0.32812500       0.12500000 </v>
   <v>      -0.07812500       0.32812500       0.12500000 </v>
   <v>      -0.04687500       0.32812500       0.12500000 </v>
   <v>      -0.01562500       0.32812500       0.12500000 </v>
   <v>       0.01562500       0.35937500       0.12500000 </v>
   <v>       0.04687500       0.35937500       0.12500000 </v>
   <v>       0.07812500       0.35937500       0.12500000 </v>
   <v>       0.10937500       0.35937500       0.12500000 </v>
   <v>       0.14062500       0.35937500       0.12500000 </v>
   <v>       0.17187500       0.35937500       0.12500000 </v>
   <v>       0.20312500       0.35937500       0.12500000 </v>
   <v>       0.23437500       0.35937500       0.12500000 </v>
   <v>       0.26562500       0.35937500       0.12500000 </v>
   <v>       0.29687500       0.35937500       0.12500000 </v>
   <v>       0.32812500       0.35937500       0.12500000 </v>
   <v>       0.35937500       0.35937500       0.12500000 </v>
   <v>       0.39062500       0.35937500       0.12500000 </v>
   <v>       0.42187500       0.35937500       0.12500000 </v>
   <v>       0.45312500       0.35937500       0.12500000 </v>
   <v>       0.48437500       0.35937500       0.12500000 </v>
   <v>      -0.48437500       0.35937500       0.12500000 </v>
   <v>      -0.45312500       0.35937500       0.12500000 </v>
   <v>      -0.42187500       0.35937500       0.12500000 </v>
   <v>      -0.39062500       0.35937500       0.12500000 </v>
   <v>      -0.35937500       0.35937500       0.12500000 </v>
   <v>      -0.32812500       0.35937500       0.12500000 </v>
   <v>      -0.29687500       0.35937500       0.12500000 </v>
   <v>      -0.26562500       0.35937500       0.12500000 </v>
   <v>      -0.23437500       0.35937500       0.12500000 </v>
   <v>      -0.20312500       0.35937500       0.12500000 </v>
   <v>      -0.17187500       0.35937500       0.12500000 </v>
   <v>      -0.14062500       0.35937500       0.12500000 </v>
   <v>      -0.10937500       0.35937500       0.12500000 </v>
   <v>      -0.07812500       0.35937500       0.12500000 </v>
   <v>      -0.04687500       0.35937500       0.12500000 </v>
   <v>      -0.01562500       0.35937500       0.12500000 </v>
   <v>       0.01562500       0.39062500       0.12500000 </v>
   <v>       0.04687500       0.39062500       0.12500000 </v>
   <v>       0.07812500       0.39062500       0.12500000 </v>
   <v>       0.10937500       0.39062500       0.12500000 </v>
   <v>       0.14062500       0.39062500       0.12500000 </v>
   <v>       0.17187500       0.39062500       0.12500000 </v>
   <v>       0.20312500       0.39062500       0.12500000 </v>
   <v>       0.23437500       0.39062500       0.12500000 </v>
   <v>       0.26562500       0.39062500       0.12500000 </v>
   <v>       0.29687500       0.39062500       0.12500000 </v>
   <v>       0.32812500       0.39062500       0.12500000 </v>
   <v>       0.35937500       0.39062500       0.12500000 </v>
   <v>       0.39062500       0.39062500       0.12500000 </v>
   <v>       0.42187500       0.39062500       0.12500000 </v>
   <v>       0.45312500       0.39062500       0.12500000 </v>
   <v>       0.48437500       0.39062500       0.12500000 </v>
   <v>      -0.48437500       0.39062500       0.12500000 </v>
   <v>      -0.45312500       0.39062500       0.12500000 </v>
   <v>      -0.42187500       0.39062500       0.12500000 </v>
   <v>      -0.39062500       0.39062500       0.12500000 </v>
   <v>      -0.35937500       0.39062500       0.12500000 </v>
   <v>      -0.32812500       0.39062500       0.12500000 </v>
   <v>      -0.29687500       0.39062500       0.12500000 </v>
   <v>      -0.26562500       0.39062500       0.12500000 </v>
   <v>      -0.23437500       0.39062500       0.12500000 </v>
   <v>      -0.20312500       0.39062500       0.12500000 </v>
   <v>      -0.17187500       0.39062500       0.12500000 </v>
   <v>      -0.14062500       0.39062500       0.12500000 </v>
   <v>      -0.10937500       0.39062500       0.12500000 </v>
   <v>      -0.07812500       0.39062500       0.12500000 </v>
   <v>      -0.04687500       0.39062500       0.12500000 </v>
   <v>      -0.01562500       0.39062500       0.12500000 </v>
   <v>       0.01562500       0.42187500       0.12500000 </v>
   <v>       0.04687500       0.42187500       0.12500000 </v>
   <v>       0.07812500       0.42187500       0.12500000 </v>
   <v>       0.10937500       0.42187500       0.12500000 </v>
   <v>       0.14062500       0.42187500       0.12500000 </v>
   <v>       0.17187500       0.42187500       0.12500000 </v>
   <v>       0.20312500       0.42187500       0.12500000 </v>
   <v>       0.23437500       0.42187500       0.12500000 </v>
   <v>       0.26562500       0.42187500       0.12500000 </v>
   <v>       0.29687500       0.42187500       0.12500000 </v>
   <v>       0.32812500       0.42187500       0.12500000 </v>
   <v>       0.35937500       0.42187500       0.12500000 </v>
   <v>       0.39062500       0.42187500       0.12500000 </v>
   <v>       0.42187500       0.42187500       0.12500000 </v>
   <v>       0.45312500       0.42187500       0.12500000 </v>
   <v>       0.48437500       0.42187500       0.12500000 </v>
   <v>      -0.48437500       0.42187500       0.12500000 </v>
   <v>      -0.45312500       0.42187500       0.12500000 </v>
   <v>      -0.42187500       0.42187500       0.12500000 </v>
   <v>      -0.39062500       0.42187500       0.12500000 </v>
   <v>      -0.35937500       0.42187500       0.12500000 </v>
   <v>      -0.32812500       0.42187500       0.12500000 </v>
   <v>      -0.29687500       0.42187500       0.12500000 </v>
   <v>      -0.26562500       0.42187500       0.12500000 </v>
   <v>      -0.23437500       0.42187500       0.12500000 </v>
   <v>      -0.20312500       0.42187500       0.12500000 </v>
   <v>      -0.17187500       0.42187500       0.12500000 </v>
   <v>      -0.14062500       0.42187500       0.12500000 </v>
   <v>      -0.10937500       0.42187500       0.12500000 </v>
   <v>      -0.07812500       0.42187500       0.12500000 </v>
   <v>      -0.04687500       0.42187500       0.12500000 </v>
   <v>      -0.01562500       0.42187500       0.12500000 </v>
   <v>       0.01562500       0.45312500       0.12500000 </v>
   <v>       0.04687500       0.45312500       0.12500000 </v>
   <v>       0.07812500       0.45312500       0.12500000 </v>
   <v>       0.10937500       0.45312500       0.12500000 </v>
   <v>       0.14062500       0.45312500       0.12500000 </v>
   <v>       0.17187500       0.45312500       0.12500000 </v>
   <v>       0.20312500       0.45312500       0.12500000 </v>
   <v>       0.23437500       0.45312500       0.12500000 </v>
   <v>       0.26562500       0.45312500       0.12500000 </v>
   <v>       0.29687500       0.45312500       0.12500000 </v>
   <v>       0.32812500       0.45312500       0.12500000 </v>
   <v>       0.35937500       0.45312500       0.12500000 </v>
   <v>       0.39062500       0.45312500       0.12500000 </v>
   <v>       0.42187500       0.45312500       0.12500000 </v>
   <v>       0.45312500       0.45312500       0.12500000 </v>
   <v>       0.48437500       0.45312500       0.12500000 </v>
   <v>      -0.48437500       0.45312500       0.12500000 </v>
   <v>      -0.45312500       0.45312500       0.12500000 </v>
   <v>      -0.42187500       0.45312500       0.12500000 </v>
   <v>      -0.39062500       0.45312500       0.12500000 </v>
   <v>      -0.35937500       0.45312500       0.12500000 </v>
   <v>      -0.32812500       0.45312500       0.12500000 </v>
   <v>      -0.29687500       0.45312500       0.12500000 </v>
   <v>      -0.26562500       0.45312500       0.12500000 </v>
   <v>      -0.23437500       0.45312500       0.12500000 </v>
   <v>      -0.20312500       0.45312500       0.12500000 </v>
   <v>      -0.17187500       0.45312500       0.12500000 </v>
   <v>      -0.14062500       0.45312500       0.12500000 </v>
   <v>      -0.10937500       0.45312500       0.12500000 </v>
   <v>      -0.07812500       0.45312500       0.12500000 </v>
   <v>      -0.04687500       0.45312500       0.12500000 </v>
   <v>      -0.01562500       0.45312500       0.12500000 </v>
   <v>       0.01562500       0.48437500       0.12500000 </v>
   <v>       0.04687500       0.48437500       0.12500000 </v>
   <v>       0.07812500       0.48437500       0.12500000 </v>
   <v>       0.10937500       0.48437500       0.12500000 </v>
   <v>       0.14062500       0.48437500       0.12500000 </v>
   <v>       0.17187500       0.48437500       0.12500000 </v>
   <v>       0.20312500       0.48437500       0.12500000 </v>
   <v>       0.23437500       0.48437500       0.12500000 </v>
   <v>       0.26562500       0.48437500       0.12500000 </v>
   <v>       0.29687500       0.48437500       0.12500000 </v>
   <v>       0.32812500       0.48437500       0.12500000 </v>
   <v>       0.35937500       0.48437500       0.12500000 </v>
   <v>       0.39062500       0.48437500       0.12500000 </v>
   <v>       0.42187500       0.48437500       0.12500000 </v>
   <v>       0.45312500       0.48437500       0.12500000 </v>
   <v>       0.48437500       0.48437500       0.12500000 </v>
   <v>      -0.48437500       0.48437500       0.12500000 </v>
   <v>      -0.45312500       0.48437500       0.12500000 </v>
   <v>      -0.42187500       0.48437500       0.12500000 </v>
   <v>      -0.39062500       0.48437500       0.12500000 </v>
   <v>      -0.35937500       0.48437500       0.12500000 </v>
   <v>      -0.32812500       0.48437500       0.12500000 </v>
   <v>      -0.29687500       0.48437500       0.12500000 </v>
   <v>      -0.26562500       0.48437500       0.12500000 </v>
   <v>      -0.23437500       0.48437500       0.12500000 </v>
   <v>      -0.20312500       0.48437500       0.12500000 </v>
   <v>      -0.17187500       0.48437500       0.12500000 </v>
   <v>      -0.14062500       0.48437500       0.12500000 </v>
   <v>      -0.10937500       0.48437500       0.12500000 </v>
   <v>      -0.07812500       0.48437500       0.12500000 </v>
   <v>      -0.04687500       0.48437500       0.12500000 </v>
   <v>      -0.01562500       0.48437500       0.12500000 </v>
   <v>       0.01562500      -0.48437500       0.12500000 </v>
   <v>       0.04687500      -0.48437500       0.12500000 </v>
   <v>       0.07812500      -0.48437500       0.12500000 </v>
   <v>       0.10937500      -0.48437500       0.12500000 </v>
   <v>       0.14062500      -0.48437500       0.12500000 </v>
   <v>       0.17187500      -0.48437500       0.12500000 </v>
   <v>       0.20312500      -0.48437500       0.12500000 </v>
   <v>       0.23437500      -0.48437500       0.12500000 </v>
   <v>       0.26562500      -0.48437500       0.12500000 </v>
   <v>       0.29687500      -0.48437500       0.12500000 </v>
   <v>       0.32812500      -0.48437500       0.12500000 </v>
   <v>       0.35937500      -0.48437500       0.12500000 </v>
   <v>       0.39062500      -0.48437500       0.12500000 </v>
   <v>       0.42187500      -0.48437500       0.12500000 </v>
   <v>       0.45312500      -0.48437500       0.12500000 </v>
   <v>       0.48437500      -0.48437500       0.12500000 </v>
   <v>      -0.48437500      -0.48437500       0.12500000 </v>
   <v>      -0.45312500      -0.48437500       0.12500000 </v>
   <v>      -0.42187500      -0.48437500       0.12500000 </v>
   <v>      -0.39062500      -0.48437500       0.12500000 </v>
   <v>      -0.35937500      -0.48437500       0.12500000 </v>
   <v>      -0.32812500      -0.48437500       0.12500000 </v>
   <v>      -0.29687500      -0.48437500       0.12500000 </v>
   <v>      -0.26562500      -0.48437500       0.12500000 </v>
   <v>      -0.23437500      -0.48437500       0.12500000 </v>
   <v>      -0.20312500      -0.48437500       0.12500000 </v>
   <v>      -0.17187500      -0.48437500       0.12500000 </v>
   <v>      -0.14062500      -0.48437500       0.12500000 </v>
   <v>      -0.10937500      -0.48437500       0.12500000 </v>
   <v>      -0.07812500      -0.48437500       0.12500000 </v>
   <v>      -0.04687500      -0.48437500       0.12500000 </v>
   <v>      -0.01562500      -0.48437500       0.12500000 </v>
   <v>       0.01562500      -0.45312500       0.12500000 </v>
   <v>       0.04687500      -0.45312500       0.12500000 </v>
   <v>       0.07812500      -0.45312500       0.12500000 </v>
   <v>       0.10937500      -0.45312500       0.12500000 </v>
   <v>       0.14062500      -0.45312500       0.12500000 </v>
   <v>       0.17187500      -0.45312500       0.12500000 </v>
   <v>       0.20312500      -0.45312500       0.12500000 </v>
   <v>       0.23437500      -0.45312500       0.12500000 </v>
   <v>       0.26562500      -0.45312500       0.12500000 </v>
   <v>       0.29687500      -0.45312500       0.12500000 </v>
   <v>       0.32812500      -0.45312500       0.12500000 </v>
   <v>       0.35937500      -0.45312500       0.12500000 </v>
   <v>       0.39062500      -0.45312500       0.12500000 </v>
   <v>       0.42187500      -0.45312500       0.12500000 </v>
   <v>       0.45312500      -0.45312500       0.12500000 </v>
   <v>       0.48437500      -0.45312500       0.12500000 </v>
   <v>      -0.48437500      -0.45312500       0.12500000 </v>
   <v>      -0.45312500      -0.45312500       0.12500000 </v>
   <v>      -0.42187500      -0.45312500       0.12500000 </v>
   <v>      -0.39062500      -0.45312500       0.12500000 </v>
   <v>      -0.35937500      -0.45312500       0.12500000 </v>
   <v>      -0.32812500      -0.45312500       0.12500000 </v>
   <v>      -0.29687500      -0.45312500       0.12500000 </v>
   <v>      -0.26562500      -0.45312500       0.12500000 </v>
   <v>      -0.23437500      -0.45312500       0.12500000 </v>
   <v>      -0.20312500      -0.45312500       0.12500000 </v>
   <v>      -0.17187500      -0.45312500       0.12500000 </v>
   <v>      -0.14062500      -0.45312500       0.12500000 </v>
   <v>      -0.10937500      -0.45312500       0.12500000 </v>
   <v>      -0.07812500      -0.45312500       0.12500000 </v>
   <v>      -0.04687500      -0.45312500       0.12500000 </v>
   <v>      -0.01562500      -0.45312500       0.12500000 </v>
   <v>       0.01562500      -0.42187500       0.12500000 </v>
   <v>       0.04687500      -0.42187500       0.12500000 </v>
   <v>       0.07812500      -0.42187500       0.12500000 </v>
   <v>       0.10937500      -0.42187500       0.12500000 </v>
   <v>       0.14062500      -0.42187500       0.12500000 </v>
   <v>       0.17187500      -0.42187500       0.12500000 </v>
   <v>       0.20312500      -0.42187500       0.12500000 </v>
   <v>       0.23437500      -0.42187500       0.12500000 </v>
   <v>       0.26562500      -0.42187500       0.12500000 </v>
   <v>       0.29687500      -0.42187500       0.12500000 </v>
   <v>       0.32812500      -0.42187500       0.12500000 </v>
   <v>       0.35937500      -0.42187500       0.12500000 </v>
   <v>       0.39062500      -0.42187500       0.12500000 </v>
   <v>       0.42187500      -0.42187500       0.12500000 </v>
   <v>       0.45312500      -0.42187500       0.12500000 </v>
   <v>       0.48437500      -0.42187500       0.12500000 </v>
   <v>      -0.48437500      -0.42187500       0.12500000 </v>
   <v>      -0.45312500      -0.42187500       0.12500000 </v>
   <v>      -0.42187500      -0.42187500       0.12500000 </v>
   <v>      -0.39062500      -0.42187500       0.12500000 </v>
   <v>      -0.35937500      -0.42187500       0.12500000 </v>
   <v>      -0.32812500      -0.42187500       0.12500000 </v>
   <v>      -0.29687500      -0.42187500       0.12500000 </v>
   <v>      -0.26562500      -0.42187500       0.12500000 </v>
   <v>      -0.23437500      -0.42187500       0.12500000 </v>
   <v>      -0.20312500      -0.42187500       0.12500000 </v>
   <v>      -0.17187500      -0.42187500       0.12500000 </v>
   <v>      -0.14062500      -0.42187500       0.12500000 </v>
   <v>      -0.10937500      -0.42187500       0.12500000 </v>
   <v>      -0.07812500      -0.42187500       0.12500000 </v>
   <v>      -0.04687500      -0.42187500       0.12500000 </v>
   <v>      -0.01562500      -0.42187500       0.12500000 </v>
   <v>       0.01562500      -0.39062500       0.12500000 </v>
   <v>       0.04687500      -0.39062500       0.12500000 </v>
   <v>       0.07812500      -0.39062500       0.12500000 </v>
   <v>       0.10937500      -0.39062500       0.12500000 </v>
   <v>       0.14062500      -0.39062500       0.12500000 </v>
   <v>       0.17187500      -0.39062500       0.12500000 </v>
   <v>       0.20312500      -0.39062500       0.12500000 </v>
   <v>       0.23437500      -0.39062500       0.12500000 </v>
   <v>       0.26562500      -0.39062500       0.12500000 </v>
   <v>       0.29687500      -0.39062500       0.12500000 </v>
   <v>       0.32812500      -0.39062500       0.12500000 </v>
   <v>       0.35937500      -0.39062500       0.12500000 </v>
   <v>       0.39062500      -0.39062500       0.12500000 </v>
   <v>       0.42187500      -0.39062500       0.12500000 </v>
   <v>       0.45312500      -0.39062500       0.12500000 </v>
   <v>       0.48437500      -0.39062500       0.12500000 </v>
   <v>      -0.48437500      -0.39062500       0.12500000 </v>
   <v>      -0.45312500      -0.39062500       0.12500000 </v>
   <v>      -0.42187500      -0.39062500       0.12500000 </v>
   <v>      -0.39062500      -0.39062500       0.12500000 </v>
   <v>      -0.35937500      -0.39062500       0.12500000 </v>
   <v>      -0.32812500      -0.39062500       0.12500000 </v>
   <v>      -0.29687500      -0.39062500       0.12500000 </v>
   <v>      -0.26562500      -0.39062500       0.12500000 </v>
   <v>      -0.23437500      -0.39062500       0.12500000 </v>
   <v>      -0.20312500      -0.39062500       0.12500000 </v>
   <v>      -0.17187500      -0.39062500       0.12500000 </v>
   <v>      -0.14062500      -0.39062500       0.12500000 </v>
   <v>      -0.10937500      -0.39062500       0.12500000 </v>
   <v>      -0.07812500      -0.39062500       0.12500000 </v>
   <v>      -0.04687500      -0.39062500       0.12500000 </v>
   <v>      -0.01562500      -0.39062500       0.12500000 </v>
   <v>       0.01562500      -0.35937500       0.12500000 </v>
   <v>       0.04687500      -0.35937500       0.12500000 </v>
   <v>       0.07812500      -0.35937500       0.12500000 </v>
   <v>       0.10937500      -0.35937500       0.12500000 </v>
   <v>       0.14062500      -0.35937500       0.12500000 </v>
   <v>       0.17187500      -0.35937500       0.12500000 </v>
   <v>       0.20312500      -0.35937500       0.12500000 </v>
   <v>       0.23437500      -0.35937500       0.12500000 </v>
   <v>       0.26562500      -0.35937500       0.12500000 </v>
   <v>       0.29687500      -0.35937500       0.12500000 </v>
   <v>       0.32812500      -0.35937500       0.12500000 </v>
   <v>       0.35937500      -0.35937500       0.12500000 </v>
   <v>       0.39062500      -0.35937500       0.12500000 </v>
   <v>       0.42187500      -0.35937500       0.12500000 </v>
   <v>       0.45312500      -0.35937500       0.12500000 </v>
   <v>       0.48437500      -0.35937500       0.12500000 </v>
   <v>      -0.48437500      -0.35937500       0.12500000 </v>
   <v>      -0.45312500      -0.35937500       0.12500000 </v>
   <v>      -0.42187500      -0.35937500       0.12500000 </v>
   <v>      -0.39062500      -0.35937500       0.12500000 </v>
   <v>      -0.35937500      -0.35937500       0.12500000 </v>
   <v>      -0.32812500      -0.35937500       0.12500000 </v>
   <v>      -0.29687500      -0.35937500       0.12500000 </v>
   <v>      -0.26562500      -0.35937500       0.12500000 </v>
   <v>      -0.23437500      -0.35937500       0.12500000 </v>
   <v>      -0.20312500      -0.35937500       0.12500000 </v>
   <v>      -0.17187500      -0.35937500       0.12500000 </v>
   <v>      -0.14062500      -0.35937500       0.12500000 </v>
   <v>      -0.10937500      -0.35937500       0.12500000 </v>
   <v>      -0.07812500      -0.35937500       0.12500000 </v>
   <v>      -0.04687500      -0.35937500       0.12500000 </v>
   <v>      -0.01562500      -0.35937500       0.12500000 </v>
   <v>       0.01562500      -0.32812500       0.12500000 </v>
   <v>       0.04687500      -0.32812500       0.12500000 </v>
   <v>       0.07812500      -0.32812500       0.12500000 </v>
   <v>       0.10937500      -0.32812500       0.12500000 </v>
   <v>       0.14062500      -0.32812500       0.12500000 </v>
   <v>       0.17187500      -0.32812500       0.12500000 </v>
   <v>       0.20312500      -0.32812500       0.12500000 </v>
   <v>       0.23437500      -0.32812500       0.12500000 </v>
   <v>       0.26562500      -0.32812500       0.12500000 </v>
   <v>       0.29687500      -0.32812500       0.12500000 </v>
   <v>       0.32812500      -0.32812500       0.12500000 </v>
   <v>       0.35937500      -0.32812500       0.12500000 </v>
   <v>       0.39062500      -0.32812500       0.12500000 </v>
   <v>       0.42187500      -0.32812500       0.12500000 </v>
   <v>       0.45312500      -0.32812500       0.12500000 </v>
   <v>       0.48437500      -0.32812500       0.12500000 </v>
   <v>      -0.48437500      -0.32812500       0.12500000 </v>
   <v>      -0.45312500      -0.32812500       0.12500000 </v>
   <v>      -0.42187500      -0.32812500       0.12500000 </v>
   <v>      -0.39062500      -0.32812500       0.12500000 </v>
   <v>      -0.35937500      -0.32812500       0.12500000 </v>
   <v>      -0.32812500      -0.32812500       0.12500000 </v>
   <v>      -0.29687500      -0.32812500       0.12500000 </v>
   <v>      -0.26562500      -0.32812500       0.12500000 </v>
   <v>      -0.23437500      -0.32812500       0.12500000 </v>
   <v>      -0.20312500      -0.32812500       0.12500000 </v>
   <v>      -0.17187500      -0.32812500       0.12500000 </v>
   <v>      -0.14062500      -0.32812500       0.12500000 </v>
   <v>      -0.10937500      -0.32812500       0.12500000 </v>
   <v>      -0.07812500      -0.32812500       0.12500000 </v>
   <v>      -0.04687500      -0.32812500       0.12500000 </v>
   <v>      -0.01562500      -0.32812500       0.12500000 </v>
   <v>       0.01562500      -0.29687500       0.12500000 </v>
   <v>       0.04687500      -0.29687500       0.12500000 </v>
   <v>       0.07812500      -0.29687500       0.12500000 </v>
   <v>       0.10937500      -0.29687500       0.12500000 </v>
   <v>       0.14062500      -0.29687500       0.12500000 </v>
   <v>       0.17187500      -0.29687500       0.12500000 </v>
   <v>       0.20312500      -0.29687500       0.12500000 </v>
   <v>       0.23437500      -0.29687500       0.12500000 </v>
   <v>       0.26562500      -0.29687500       0.12500000 </v>
   <v>       0.29687500      -0.29687500       0.12500000 </v>
   <v>       0.32812500      -0.29687500       0.12500000 </v>
   <v>       0.35937500      -0.29687500       0.12500000 </v>
   <v>       0.39062500      -0.29687500       0.12500000 </v>
   <v>       0.42187500      -0.29687500       0.12500000 </v>
   <v>       0.45312500      -0.29687500       0.12500000 </v>
   <v>       0.48437500      -0.29687500       0.12500000 </v>
   <v>      -0.48437500      -0.29687500       0.12500000 </v>
   <v>      -0.45312500      -0.29687500       0.12500000 </v>
   <v>      -0.42187500      -0.29687500       0.12500000 </v>
   <v>      -0.39062500      -0.29687500       0.12500000 </v>
   <v>      -0.35937500      -0.29687500       0.12500000 </v>
   <v>      -0.32812500      -0.29687500       0.12500000 </v>
   <v>      -0.29687500      -0.29687500       0.12500000 </v>
   <v>      -0.26562500      -0.29687500       0.12500000 </v>
   <v>      -0.23437500      -0.29687500       0.12500000 </v>
   <v>      -0.20312500      -0.29687500       0.12500000 </v>
   <v>      -0.17187500      -0.29687500       0.12500000 </v>
   <v>      -0.14062500      -0.29687500       0.12500000 </v>
   <v>      -0.10937500      -0.29687500       0.12500000 </v>
   <v>      -0.07812500      -0.29687500       0.12500000 </v>
   <v>      -0.04687500      -0.29687500       0.12500000 </v>
   <v>      -0.01562500      -0.29687500       0.12500000 </v>
   <v>       0.01562500      -0.26562500       0.12500000 </v>
   <v>       0.04687500      -0.26562500       0.12500000 </v>
   <v>       0.07812500      -0.26562500       0.12500000 </v>
   <v>       0.10937500      -0.26562500       0.12500000 </v>
   <v>       0.14062500      -0.26562500       0.12500000 </v>
   <v>       0.17187500      -0.26562500       0.12500000 </v>
   <v>       0.20312500      -0.26562500       0.12500000 </v>
   <v>       0.23437500      -0.26562500       0.12500000 </v>
   <v>       0.26562500      -0.26562500       0.12500000 </v>
   <v>       0.29687500      -0.26562500       0.12500000 </v>
   <v>       0.32812500      -0.26562500       0.12500000 </v>
   <v>       0.35937500      -0.26562500       0.12500000 </v>
   <v>       0.39062500      -0.26562500       0.12500000 </v>
   <v>       0.42187500      -0.26562500       0.12500000 </v>
   <v>       0.45312500      -0.26562500       0.12500000 </v>
   <v>       0.48437500      -0.26562500       0.12500000 </v>
   <v>      -0.48437500      -0.26562500       0.12500000 </v>
   <v>      -0.45312500      -0.26562500       0.12500000 </v>
   <v>      -0.42187500      -0.26562500       0.12500000 </v>
   <v>      -0.39062500      -0.26562500       0.12500000 </v>
   <v>      -0.35937500      -0.26562500       0.12500000 </v>
   <v>      -0.32812500      -0.26562500       0.12500000 </v>
   <v>      -0.29687500      -0.26562500       0.12500000 </v>
   <v>      -0.26562500      -0.26562500       0.12500000 </v>
   <v>      -0.23437500      -0.26562500       0.12500000 </v>
   <v>      -0.20312500      -0.26562500       0.12500000 </v>
   <v>      -0.17187500      -0.26562500       0.12500000 </v>
   <v>      -0.14062500      -0.26562500       0.12500000 </v>
   <v>      -0.10937500      -0.26562500       0.12500000 </v>
   <v>      -0.07812500      -0.26562500       0.12500000 </v>
   <v>      -0.04687500      -0.26562500       0.12500000 </v>
   <v>      -0.01562500      -0.26562500       0.12500000 </v>
   <v>       0.01562500      -0.23437500       0.12500000 </v>
   <v>       0.04687500      -0.23437500       0.12500000 </v>
   <v>       0.07812500      -0.23437500       0.12500000 </v>
   <v>       0.10937500      -0.23437500       0.12500000 </v>
   <v>       0.14062500      -0.23437500       0.12500000 </v>
   <v>       0.17187500      -0.23437500       0.12500000 </v>
   <v>       0.20312500      -0.23437500       0.12500000 </v>
   <v>       0.23437500      -0.23437500       0.12500000 </v>
   <v>       0.26562500      -0.23437500       0.12500000 </v>
   <v>       0.29687500      -0.23437500       0.12500000 </v>
   <v>       0.32812500      -0.23437500       0.12500000 </v>
   <v>       0.35937500      -0.23437500       0.12500000 </v>
   <v>       0.39062500      -0.23437500       0.12500000 </v>
   <v>       0.42187500      -0.23437500       0.12500000 </v>
   <v>       0.45312500      -0.23437500       0.12500000 </v>
   <v>       0.48437500      -0.23437500       0.12500000 </v>
   <v>      -0.48437500      -0.23437500       0.12500000 </v>
   <v>      -0.45312500      -0.23437500       0.12500000 </v>
   <v>      -0.42187500      -0.23437500       0.12500000 </v>
   <v>      -0.39062500      -0.23437500       0.12500000 </v>
   <v>      -0.35937500      -0.23437500       0.12500000 </v>
   <v>      -0.32812500      -0.23437500       0.12500000 </v>
   <v>      -0.29687500      -0.23437500       0.12500000 </v>
   <v>      -0.26562500      -0.23437500       0.12500000 </v>
   <v>      -0.23437500      -0.23437500       0.12500000 </v>
   <v>      -0.20312500      -0.23437500       0.12500000 </v>
   <v>      -0.17187500      -0.23437500       0.12500000 </v>
   <v>      -0.14062500      -0.23437500       0.12500000 </v>
   <v>      -0.10937500      -0.23437500       0.12500000 </v>
   <v>      -0.07812500      -0.23437500       0.12500000 </v>
   <v>      -0.04687500      -0.23437500       0.12500000 </v>
   <v>      -0.01562500      -0.23437500       0.12500000 </v>
   <v>       0.01562500      -0.20312500       0.12500000 </v>
   <v>       0.04687500      -0.20312500       0.12500000 </v>
   <v>       0.07812500      -0.20312500       0.12500000 </v>
   <v>       0.10937500      -0.20312500       0.12500000 </v>
   <v>       0.14062500      -0.20312500       0.12500000 </v>
   <v>       0.17187500      -0.20312500       0.12500000 </v>
   <v>       0.20312500      -0.20312500       0.12500000 </v>
   <v>       0.23437500      -0.20312500       0.12500000 </v>
   <v>       0.26562500      -0.20312500       0.12500000 </v>
   <v>       0.29687500      -0.20312500       0.12500000 </v>
   <v>       0.32812500      -0.20312500       0.12500000 </v>
   <v>       0.35937500      -0.20312500       0.12500000 </v>
   <v>       0.39062500      -0.20312500       0.12500000 </v>
   <v>       0.42187500      -0.20312500       0.12500000 </v>
   <v>       0.45312500      -0.20312500       0.12500000 </v>
   <v>       0.48437500      -0.20312500       0.12500000 </v>
   <v>      -0.48437500      -0.20312500       0.12500000 </v>
   <v>      -0.45312500      -0.20312500       0.12500000 </v>
   <v>      -0.42187500      -0.20312500       0.12500000 </v>
   <v>      -0.39062500      -0.20312500       0.12500000 </v>
   <v>      -0.35937500      -0.20312500       0.12500000 </v>
   <v>      -0.32812500      -0.20312500       0.12500000 </v>
   <v>      -0.29687500      -0.20312500       0.12500000 </v>
   <v>      -0.26562500      -0.20312500       0.12500000 </v>
   <v>      -0.23437500      -0.20312500       0.12500000 </v>
   <v>      -0.20312500      -0.20312500       0.12500000 </v>
   <v>      -0.17187500      -0.20312500       0.12500000 </v>
   <v>      -0.14062500      -0.20312500       0.12500000 </v>
   <v>      -0.10937500      -0.20312500       0.12500000 </v>
   <v>      -0.07812500      -0.20312500       0.12500000 </v>
   <v>      -0.04687500      -0.20312500       0.12500000 </v>
   <v>      -0.01562500      -0.20312500       0.12500000 </v>
   <v>       0.01562500      -0.17187500       0.12500000 </v>
   <v>       0.04687500      -0.17187500       0.12500000 </v>
   <v>       0.07812500      -0.17187500       0.12500000 </v>
   <v>       0.10937500      -0.17187500       0.12500000 </v>
   <v>       0.14062500      -0.17187500       0.12500000 </v>
   <v>       0.17187500      -0.17187500       0.12500000 </v>
   <v>       0.20312500      -0.17187500       0.12500000 </v>
   <v>       0.23437500      -0.17187500       0.12500000 </v>
   <v>       0.26562500      -0.17187500       0.12500000 </v>
   <v>       0.29687500      -0.17187500       0.12500000 </v>
   <v>       0.32812500      -0.17187500       0.12500000 </v>
   <v>       0.35937500      -0.17187500       0.12500000 </v>
   <v>       0.39062500      -0.17187500       0.12500000 </v>
   <v>       0.42187500      -0.17187500       0.12500000 </v>
   <v>       0.45312500      -0.17187500       0.12500000 </v>
   <v>       0.48437500      -0.17187500       0.12500000 </v>
   <v>      -0.48437500      -0.17187500       0.12500000 </v>
   <v>      -0.45312500      -0.17187500       0.12500000 </v>
   <v>      -0.42187500      -0.17187500       0.12500000 </v>
   <v>      -0.39062500      -0.17187500       0.12500000 </v>
   <v>      -0.35937500      -0.17187500       0.12500000 </v>
   <v>      -0.32812500      -0.17187500       0.12500000 </v>
   <v>      -0.29687500      -0.17187500       0.12500000 </v>
   <v>      -0.26562500      -0.17187500       0.12500000 </v>
   <v>      -0.23437500      -0.17187500       0.12500000 </v>
   <v>      -0.20312500      -0.17187500       0.12500000 </v>
   <v>      -0.17187500      -0.17187500       0.12500000 </v>
   <v>      -0.14062500      -0.17187500       0.12500000 </v>
   <v>      -0.10937500      -0.17187500       0.12500000 </v>
   <v>      -0.07812500      -0.17187500       0.12500000 </v>
   <v>      -0.04687500      -0.17187500       0.12500000 </v>
   <v>      -0.01562500      -0.17187500       0.12500000 </v>
   <v>       0.01562500      -0.14062500       0.12500000 </v>
   <v>       0.04687500      -0.14062500       0.12500000 </v>
   <v>       0.07812500      -0.14062500       0.12500000 </v>
   <v>       0.10937500      -0.14062500       0.12500000 </v>
   <v>       0.14062500      -0.14062500       0.12500000 </v>
   <v>       0.17187500      -0.14062500       0.12500000 </v>
   <v>       0.20312500      -0.14062500       0.12500000 </v>
   <v>       0.23437500      -0.14062500       0.12500000 </v>
   <v>       0.26562500      -0.14062500       0.12500000 </v>
   <v>       0.29687500      -0.14062500       0.12500000 </v>
   <v>       0.32812500      -0.14062500       0.12500000 </v>
   <v>       0.35937500      -0.14062500       0.12500000 </v>
   <v>       0.39062500      -0.14062500       0.12500000 </v>
   <v>       0.42187500      -0.14062500       0.12500000 </v>
   <v>       0.45312500      -0.14062500       0.12500000 </v>
   <v>       0.48437500      -0.14062500       0.12500000 </v>
   <v>      -0.48437500      -0.14062500       0.12500000 </v>
   <v>      -0.45312500      -0.14062500       0.12500000 </v>
   <v>      -0.42187500      -0.14062500       0.12500000 </v>
   <v>      -0.39062500      -0.14062500       0.12500000 </v>
   <v>      -0.35937500      -0.14062500       0.12500000 </v>
   <v>      -0.32812500      -0.14062500       0.12500000 </v>
   <v>      -0.29687500      -0.14062500       0.12500000 </v>
   <v>      -0.26562500      -0.14062500       0.12500000 </v>
   <v>      -0.23437500      -0.14062500       0.12500000 </v>
   <v>      -0.20312500      -0.14062500       0.12500000 </v>
   <v>      -0.17187500      -0.14062500       0.12500000 </v>
   <v>      -0.14062500      -0.14062500       0.12500000 </v>
   <v>      -0.10937500      -0.14062500       0.12500000 </v>
   <v>      -0.07812500      -0.14062500       0.12500000 </v>
   <v>      -0.04687500      -0.14062500       0.12500000 </v>
   <v>      -0.01562500      -0.14062500       0.12500000 </v>
   <v>       0.01562500      -0.10937500       0.12500000 </v>
   <v>       0.04687500      -0.10937500       0.12500000 </v>
   <v>       0.07812500      -0.10937500       0.12500000 </v>
   <v>       0.10937500      -0.10937500       0.12500000 </v>
   <v>       0.14062500      -0.10937500       0.12500000 </v>
   <v>       0.17187500      -0.10937500       0.12500000 </v>
   <v>       0.20312500      -0.10937500       0.12500000 </v>
   <v>       0.23437500      -0.10937500       0.12500000 </v>
   <v>       0.26562500      -0.10937500       0.12500000 </v>
   <v>       0.29687500      -0.10937500       0.12500000 </v>
   <v>       0.32812500      -0.10937500       0.12500000 </v>
   <v>       0.35937500      -0.10937500       0.12500000 </v>
   <v>       0.39062500      -0.10937500       0.12500000 </v>
   <v>       0.42187500      -0.10937500       0.12500000 </v>
   <v>       0.45312500      -0.10937500       0.12500000 </v>
   <v>       0.48437500      -0.10937500       0.12500000 </v>
   <v>      -0.48437500      -0.10937500       0.12500000 </v>
   <v>      -0.45312500      -0.10937500       0.12500000 </v>
   <v>      -0.42187500      -0.10937500       0.12500000 </v>
   <v>      -0.39062500      -0.10937500       0.12500000 </v>
   <v>      -0.35937500      -0.10937500       0.12500000 </v>
   <v>      -0.32812500      -0.10937500       0.12500000 </v>
   <v>      -0.29687500      -0.10937500       0.12500000 </v>
   <v>      -0.26562500      -0.10937500       0.12500000 </v>
   <v>      -0.23437500      -0.10937500       0.12500000 </v>
   <v>      -0.20312500      -0.10937500       0.12500000 </v>
   <v>      -0.17187500      -0.10937500       0.12500000 </v>
   <v>      -0.14062500      -0.10937500       0.12500000 </v>
   <v>      -0.10937500      -0.10937500       0.12500000 </v>
   <v>      -0.07812500      -0.10937500       0.12500000 </v>
   <v>      -0.04687500      -0.10937500       0.12500000 </v>
   <v>      -0.01562500      -0.10937500       0.12500000 </v>
   <v>       0.01562500      -0.07812500       0.12500000 </v>
   <v>       0.04687500      -0.07812500       0.12500000 </v>
   <v>       0.07812500      -0.07812500       0.12500000 </v>
   <v>       0.10937500      -0.07812500       0.12500000 </v>
   <v>       0.14062500      -0.07812500       0.12500000 </v>
   <v>       0.17187500      -0.07812500       0.12500000 </v>
   <v>       0.20312500      -0.07812500       0.12500000 </v>
   <v>       0.23437500      -0.07812500       0.12500000 </v>
   <v>       0.26562500      -0.07812500       0.12500000 </v>
   <v>       0.29687500      -0.07812500       0.12500000 </v>
   <v>       0.32812500      -0.07812500       0.12500000 </v>
   <v>       0.35937500      -0.07812500       0.12500000 </v>
   <v>       0.39062500      -0.07812500       0.12500000 </v>
   <v>       0.42187500      -0.07812500       0.12500000 </v>
   <v>       0.45312500      -0.07812500       0.12500000 </v>
   <v>       0.48437500      -0.07812500       0.12500000 </v>
   <v>      -0.48437500      -0.07812500       0.12500000 </v>
   <v>      -0.45312500      -0.07812500       0.12500000 </v>
   <v>      -0.42187500      -0.07812500       0.12500000 </v>
   <v>      -0.39062500      -0.07812500       0.12500000 </v>
   <v>      -0.35937500      -0.07812500       0.12500000 </v>
   <v>      -0.32812500      -0.07812500       0.12500000 </v>
   <v>      -0.29687500      -0.07812500       0.12500000 </v>
   <v>      -0.26562500      -0.07812500       0.12500000 </v>
   <v>      -0.23437500      -0.07812500       0.12500000 </v>
   <v>      -0.20312500      -0.07812500       0.12500000 </v>
   <v>      -0.17187500      -0.07812500       0.12500000 </v>
   <v>      -0.14062500      -0.07812500       0.12500000 </v>
   <v>      -0.10937500      -0.07812500       0.12500000 </v>
   <v>      -0.07812500      -0.07812500       0.12500000 </v>
   <v>      -0.04687500      -0.07812500       0.12500000 </v>
   <v>      -0.01562500      -0.07812500       0.12500000 </v>
   <v>       0.01562500      -0.04687500       0.12500000 </v>
   <v>       0.04687500      -0.04687500       0.12500000 </v>
   <v>       0.07812500      -0.04687500       0.12500000 </v>
   <v>       0.10937500      -0.04687500       0.12500000 </v>
   <v>       0.14062500      -0.04687500       0.12500000 </v>
   <v>       0.17187500      -0.04687500       0.12500000 </v>
   <v>       0.20312500      -0.04687500       0.12500000 </v>
   <v>       0.23437500      -0.04687500       0.12500000 </v>
   <v>       0.26562500      -0.04687500       0.12500000 </v>
   <v>       0.29687500      -0.04687500       0.12500000 </v>
   <v>       0.32812500      -0.04687500       0.12500000 </v>
   <v>       0.35937500      -0.04687500       0.12500000 </v>
   <v>       0.39062500      -0.04687500       0.12500000 </v>
   <v>       0.42187500      -0.04687500       0.12500000 </v>
   <v>       0.45312500      -0.04687500       0.12500000 </v>
   <v>       0.48437500      -0.04687500       0.12500000 </v>
   <v>      -0.48437500      -0.04687500       0.12500000 </v>
   <v>      -0.45312500      -0.04687500       0.12500000 </v>
   <v>      -0.42187500      -0.04687500       0.12500000 </v>
   <v>      -0.39062500      -0.04687500       0.12500000 </v>
   <v>      -0.35937500      -0.04687500       0.12500000 </v>
   <v>      -0.32812500      -0.04687500       0.12500000 </v>
   <v>      -0.29687500      -0.04687500       0.12500000 </v>
   <v>      -0.26562500      -0.04687500       0.12500000 </v>
   <v>      -0.23437500      -0.04687500       0.12500000 </v>
   <v>      -0.20312500      -0.04687500       0.12500000 </v>
   <v>      -0.17187500      -0.04687500       0.12500000 </v>
   <v>      -0.14062500      -0.04687500       0.12500000 </v>
   <v>      -0.10937500      -0.04687500       0.12500000 </v>
   <v>      -0.07812500      -0.04687500       0.12500000 </v>
   <v>      -0.04687500      -0.04687500       0.12500000 </v>
   <v>      -0.01562500      -0.04687500       0.12500000 </v>
   <v>       0.01562500      -0.01562500       0.12500000 </v>
   <v>       0.04687500      -0.01562500       0.12500000 </v>
   <v>       0.07812500      -0.01562500       0.12500000 </v>
   <v>       0.10937500      -0.01562500       0.12500000 </v>
   <v>       0.14062500      -0.01562500       0.12500000 </v>
   <v>       0.17187500      -0.01562500       0.12500000 </v>
   <v>       0.20312500      -0.01562500       0.12500000 </v>
   <v>       0.23437500      -0.01562500       0.12500000 </v>
   <v>       0.26562500      -0.01562500       0.12500000 </v>
   <v>       0.29687500      -0.01562500       0.12500000 </v>
   <v>       0.32812500      -0.01562500       0.12500000 </v>
   <v>       0.35937500      -0.01562500       0.12500000 </v>
   <v>       0.39062500      -0.01562500       0.12500000 </v>
   <v>       0.42187500      -0.01562500       0.12500000 </v>
   <v>       0.45312500      -0.01562500       0.12500000 </v>
   <v>       0.48437500      -0.01562500       0.12500000 </v>
   <v>      -0.48437500      -0.01562500       0.12500000 </v>
   <v>      -0.45312500      -0.01562500       0.12500000 </v>
   <v>      -0.42187500      -0.01562500       0.12500000 </v>
   <v>      -0.39062500      -0.01562500       0.12500000 </v>
   <v>      -0.35937500      -0.01562500       0.12500000 </v>
   <v>      -0.32812500      -0.01562500       0.12500000 </v>
   <v>      -0.29687500      -0.01562500       0.12500000 </v>
   <v>      -0.26562500      -0.01562500       0.12500000 </v>
   <v>      -0.23437500      -0.01562500       0.12500000 </v>
   <v>      -0.20312500      -0.01562500       0.12500000 </v>
   <v>      -0.17187500      -0.01562500       0.12500000 </v>
   <v>      -0.14062500      -0.01562500       0.12500000 </v>
   <v>      -0.10937500      -0.01562500       0.12500000 </v>
   <v>      -0.07812500      -0.01562500       0.12500000 </v>
   <v>      -0.04687500      -0.01562500       0.12500000 </v>
   <v>      -0.01562500      -0.01562500       0.12500000 </v>
   <v>       0.01562500       0.01562500       0.37500000 </v>
   <v>       0.04687500       0.01562500       0.37500000 </v>
   <v>       0.07812500       0.01562500       0.37500000 </v>
   <v>       0.10937500       0.01562500       0.37500000 </v>
   <v>       0.14062500       0.01562500       0.37500000 </v>
   <v>       0.17187500       0.01562500       0.37500000 </v>
   <v>       0.20312500       0.01562500       0.37500000 </v>
   <v>       0.23437500       0.01562500       0.37500000 </v>
   <v>       0.26562500       0.01562500       0.37500000 </v>
   <v>       0.29687500       0.01562500       0.37500000 </v>
   <v>       0.32812500       0.01562500       0.37500000 </v>
   <v>       0.35937500       0.01562500       0.37500000 </v>
   <v>       0.39062500       0.01562500       0.37500000 </v>
   <v>       0.42187500       0.01562500       0.37500000 </v>
   <v>       0.45312500       0.01562500       0.37500000 </v>
   <v>       0.48437500       0.01562500       0.37500000 </v>
   <v>      -0.48437500       0.01562500       0.37500000 </v>
   <v>      -0.45312500       0.01562500       0.37500000 </v>
   <v>      -0.42187500       0.01562500       0.37500000 </v>
   <v>      -0.39062500       0.01562500       0.37500000 </v>
   <v>      -0.35937500       0.01562500       0.37500000 </v>
   <v>      -0.32812500       0.01562500       0.37500000 </v>
   <v>      -0.29687500       0.01562500       0.37500000 </v>
   <v>      -0.26562500       0.01562500       0.37500000 </v>
   <v>      -0.23437500       0.01562500       0.37500000 </v>
   <v>      -0.20312500       0.01562500       0.37500000 </v>
   <v>      -0.17187500       0.01562500       0.37500000 </v>
   <v>      -0.14062500       0.01562500       0.37500000 </v>
   <v>      -0.10937500       0.01562500       0.37500000 </v>
   <v>      -0.07812500       0.01562500       0.37500000 </v>
   <v>      -0.04687500       0.01562500       0.37500000 </v>
   <v>      -0.01562500       0.01562500       0.37500000 </v>
   <v>       0.01562500       0.04687500       0.37500000 </v>
   <v>       0.04687500       0.04687500       0.37500000 </v>
   <v>       0.07812500       0.04687500       0.37500000 </v>
   <v>       0.10937500       0.04687500       0.37500000 </v>
   <v>       0.14062500       0.04687500       0.37500000 </v>
   <v>       0.17187500       0.04687500       0.37500000 </v>
   <v>       0.20312500       0.04687500       0.37500000 </v>
   <v>       0.23437500       0.04687500       0.37500000 </v>
   <v>       0.26562500       0.04687500       0.37500000 </v>
   <v>       0.29687500       0.04687500       0.37500000 </v>
   <v>       0.32812500       0.04687500       0.37500000 </v>
   <v>       0.35937500       0.04687500       0.37500000 </v>
   <v>       0.39062500       0.04687500       0.37500000 </v>
   <v>       0.42187500       0.04687500       0.37500000 </v>
   <v>       0.45312500       0.04687500       0.37500000 </v>
   <v>       0.48437500       0.04687500       0.37500000 </v>
   <v>      -0.48437500       0.04687500       0.37500000 </v>
   <v>      -0.45312500       0.04687500       0.37500000 </v>
   <v>      -0.42187500       0.04687500       0.37500000 </v>
   <v>      -0.39062500       0.04687500       0.37500000 </v>
   <v>      -0.35937500       0.04687500       0.37500000 </v>
   <v>      -0.32812500       0.04687500       0.37500000 </v>
   <v>      -0.29687500       0.04687500       0.37500000 </v>
   <v>      -0.26562500       0.04687500       0.37500000 </v>
   <v>      -0.23437500       0.04687500       0.37500000 </v>
   <v>      -0.20312500       0.04687500       0.37500000 </v>
   <v>      -0.17187500       0.04687500       0.37500000 </v>
   <v>      -0.14062500       0.04687500       0.37500000 </v>
   <v>      -0.10937500       0.04687500       0.37500000 </v>
   <v>      -0.07812500       0.04687500       0.37500000 </v>
   <v>      -0.04687500       0.04687500       0.37500000 </v>
   <v>      -0.01562500       0.04687500       0.37500000 </v>
   <v>       0.01562500       0.07812500       0.37500000 </v>
   <v>       0.04687500       0.07812500       0.37500000 </v>
   <v>       0.07812500       0.07812500       0.37500000 </v>
   <v>       0.10937500       0.07812500       0.37500000 </v>
   <v>       0.14062500       0.07812500       0.37500000 </v>
   <v>       0.17187500       0.07812500       0.37500000 </v>
   <v>       0.20312500       0.07812500       0.37500000 </v>
   <v>       0.23437500       0.07812500       0.37500000 </v>
   <v>       0.26562500       0.07812500       0.37500000 </v>
   <v>       0.29687500       0.07812500       0.37500000 </v>
   <v>       0.32812500       0.07812500       0.37500000 </v>
   <v>       0.35937500       0.07812500       0.37500000 </v>
   <v>       0.39062500       0.07812500       0.37500000 </v>
   <v>       0.42187500       0.07812500       0.37500000 </v>
   <v>       0.45312500       0.07812500       0.37500000 </v>
   <v>       0.48437500       0.07812500       0.37500000 </v>
   <v>      -0.48437500       0.07812500       0.37500000 </v>
   <v>      -0.45312500       0.07812500       0.37500000 </v>
   <v>      -0.42187500       0.07812500       0.37500000 </v>
   <v>      -0.39062500       0.07812500       0.37500000 </v>
   <v>      -0.35937500       0.07812500       0.37500000 </v>
   <v>      -0.32812500       0.07812500       0.37500000 </v>
   <v>      -0.29687500       0.07812500       0.37500000 </v>
   <v>      -0.26562500       0.07812500       0.37500000 </v>
   <v>      -0.23437500       0.07812500       0.37500000 </v>
   <v>      -0.20312500       0.07812500       0.37500000 </v>
   <v>      -0.17187500       0.07812500       0.37500000 </v>
   <v>      -0.14062500       0.07812500       0.37500000 </v>
   <v>      -0.10937500       0.07812500       0.37500000 </v>
   <v>      -0.07812500       0.07812500       0.37500000 </v>
   <v>      -0.04687500       0.07812500       0.37500000 </v>
   <v>      -0.01562500       0.07812500       0.37500000 </v>
   <v>       0.01562500       0.10937500       0.37500000 </v>
   <v>       0.04687500       0.10937500       0.37500000 </v>
   <v>       0.07812500       0.10937500       0.37500000 </v>
   <v>       0.10937500       0.10937500       0.37500000 </v>
   <v>       0.14062500       0.10937500       0.37500000 </v>
   <v>       0.17187500       0.10937500       0.37500000 </v>
   <v>       0.20312500       0.10937500       0.37500000 </v>
   <v>       0.23437500       0.10937500       0.37500000 </v>
   <v>       0.26562500       0.10937500       0.37500000 </v>
   <v>       0.29687500       0.10937500       0.37500000 </v>
   <v>       0.32812500       0.10937500       0.37500000 </v>
   <v>       0.35937500       0.10937500       0.37500000 </v>
   <v>       0.39062500       0.10937500       0.37500000 </v>
   <v>       0.42187500       0.10937500       0.37500000 </v>
   <v>       0.45312500       0.10937500       0.37500000 </v>
   <v>       0.48437500       0.10937500       0.37500000 </v>
   <v>      -0.48437500       0.10937500       0.37500000 </v>
   <v>      -0.45312500       0.10937500       0.37500000 </v>
   <v>      -0.42187500       0.10937500       0.37500000 </v>
   <v>      -0.39062500       0.10937500       0.37500000 </v>
   <v>      -0.35937500       0.10937500       0.37500000 </v>
   <v>      -0.32812500       0.10937500       0.37500000 </v>
   <v>      -0.29687500       0.10937500       0.37500000 </v>
   <v>      -0.26562500       0.10937500       0.37500000 </v>
   <v>      -0.23437500       0.10937500       0.37500000 </v>
   <v>      -0.20312500       0.10937500       0.37500000 </v>
   <v>      -0.17187500       0.10937500       0.37500000 </v>
   <v>      -0.14062500       0.10937500       0.37500000 </v>
   <v>      -0.10937500       0.10937500       0.37500000 </v>
   <v>      -0.07812500       0.10937500       0.37500000 </v>
   <v>      -0.04687500       0.10937500       0.37500000 </v>
   <v>      -0.01562500       0.10937500       0.37500000 </v>
   <v>       0.01562500       0.14062500       0.37500000 </v>
   <v>       0.04687500       0.14062500       0.37500000 </v>
   <v>       0.07812500       0.14062500       0.37500000 </v>
   <v>       0.10937500       0.14062500       0.37500000 </v>
   <v>       0.14062500       0.14062500       0.37500000 </v>
   <v>       0.17187500       0.14062500       0.37500000 </v>
   <v>       0.20312500       0.14062500       0.37500000 </v>
   <v>       0.23437500       0.14062500       0.37500000 </v>
   <v>       0.26562500       0.14062500       0.37500000 </v>
   <v>       0.29687500       0.14062500       0.37500000 </v>
   <v>       0.32812500       0.14062500       0.37500000 </v>
   <v>       0.35937500       0.14062500       0.37500000 </v>
   <v>       0.39062500       0.14062500       0.37500000 </v>
   <v>       0.42187500       0.14062500       0.37500000 </v>
   <v>       0.45312500       0.14062500       0.37500000 </v>
   <v>       0.48437500       0.14062500       0.37500000 </v>
   <v>      -0.48437500       0.14062500       0.37500000 </v>
   <v>      -0.45312500       0.14062500       0.37500000 </v>
   <v>      -0.42187500       0.14062500       0.37500000 </v>
   <v>      -0.39062500       0.14062500       0.37500000 </v>
   <v>      -0.35937500       0.14062500       0.37500000 </v>
   <v>      -0.32812500       0.14062500       0.37500000 </v>
   <v>      -0.29687500       0.14062500       0.37500000 </v>
   <v>      -0.26562500       0.14062500       0.37500000 </v>
   <v>      -0.23437500       0.14062500       0.37500000 </v>
   <v>      -0.20312500       0.14062500       0.37500000 </v>
   <v>      -0.17187500       0.14062500       0.37500000 </v>
   <v>      -0.14062500       0.14062500       0.37500000 </v>
   <v>      -0.10937500       0.14062500       0.37500000 </v>
   <v>      -0.07812500       0.14062500       0.37500000 </v>
   <v>      -0.04687500       0.14062500       0.37500000 </v>
   <v>      -0.01562500       0.14062500       0.37500000 </v>
   <v>       0.01562500       0.17187500       0.37500000 </v>
   <v>       0.04687500       0.17187500       0.37500000 </v>
   <v>       0.07812500       0.17187500       0.37500000 </v>
   <v>       0.10937500       0.17187500       0.37500000 </v>
   <v>       0.14062500       0.17187500       0.37500000 </v>
   <v>       0.17187500       0.17187500       0.37500000 </v>
   <v>       0.20312500       0.17187500       0.37500000 </v>
   <v>       0.23437500       0.17187500       0.37500000 </v>
   <v>       0.26562500       0.17187500       0.37500000 </v>
   <v>       0.29687500       0.17187500       0.37500000 </v>
   <v>       0.32812500       0.17187500       0.37500000 </v>
   <v>       0.35937500       0.17187500       0.37500000 </v>
   <v>       0.39062500       0.17187500       0.37500000 </v>
   <v>       0.42187500       0.17187500       0.37500000 </v>
   <v>       0.45312500       0.17187500       0.37500000 </v>
   <v>       0.48437500       0.17187500       0.37500000 </v>
   <v>      -0.48437500       0.17187500       0.37500000 </v>
   <v>      -0.45312500       0.17187500       0.37500000 </v>
   <v>      -0.42187500       0.17187500       0.37500000 </v>
   <v>      -0.39062500       0.17187500       0.37500000 </v>
   <v>      -0.35937500       0.17187500       0.37500000 </v>
   <v>      -0.32812500       0.17187500       0.37500000 </v>
   <v>      -0.29687500       0.17187500       0.37500000 </v>
   <v>      -0.26562500       0.17187500       0.37500000 </v>
   <v>      -0.23437500       0.17187500       0.37500000 </v>
   <v>      -0.20312500       0.17187500       0.37500000 </v>
   <v>      -0.17187500       0.17187500       0.37500000 </v>
   <v>      -0.14062500       0.17187500       0.37500000 </v>
   <v>      -0.10937500       0.17187500       0.37500000 </v>
   <v>      -0.07812500       0.17187500       0.37500000 </v>
   <v>      -0.04687500       0.17187500       0.37500000 </v>
   <v>      -0.01562500       0.17187500       0.37500000 </v>
   <v>       0.01562500       0.20312500       0.37500000 </v>
   <v>       0.04687500       0.20312500       0.37500000 </v>
   <v>       0.07812500       0.20312500       0.37500000 </v>
   <v>       0.10937500       0.20312500       0.37500000 </v>
   <v>       0.14062500       0.20312500       0.37500000 </v>
   <v>       0.17187500       0.20312500       0.37500000 </v>
   <v>       0.20312500       0.20312500       0.37500000 </v>
[...]
       <r>   15.2173    0.0000 </r>
       <r>   15.3828    0.0000 </r>
       <r>   15.8831    0.0000 </r>
       <r>   15.9024    0.0000 </r>
      </set>
      <set comment="kpoint 2046">
       <r>   -8.7722    1.0000 </r>
       <r>   -8.0775    1.0000 </r>
       <r>   -6.9502    1.0000 </r>
       <r>   -5.4196    1.0000 </r>
       <r>   -3.5014    1.0000 </r>
       <r>   -1.4655    1.0000 </r>
       <r>    0.9673    1.0000 </r>
       <r>    3.3426   -0.0000 </r>
       <r>    5.2015   -0.0000 </r>
       <r>    5.9158   -0.0000 </r>
       <r>    7.1084   -0.0000 </r>
       <r>    7.5291    0.0000 </r>
       <r>    9.6349    0.0000 </r>
       <r>   10.1554    0.0000 </r>
       <r>   10.8065    0.0000 </r>
       <r>   11.4174    0.0000 </r>
       <r>   11.5077    0.0000 </r>
       <r>   12.0908    0.0000 </r>
       <r>   12.2829    0.0000 </r>
       <r>   12.7313    0.0000 </r>
       <r>   13.0568    0.0000 </r>
       <r>   13.2690    0.0000 </r>
       <r>   13.4380    0.0000 </r>
       <r>   13.5297    0.0000 </r>
       <r>   14.0327    0.0000 </r>
       <r>   14.3095    0.0000 </r>
       <r>   14.5027    0.0000 </r>
       <r>   14.9363    0.0000 </r>
       <r>   15.0949    0.0000 </r>
       <r>   15.5661    0.0000 </r>
       <r>   15.8528    0.0000 </r>
       <r>   16.2105    0.0000 </r>
      </set>
      <set comment="kpoint 2047">
       <r>   -8.8548    1.0000 </r>
       <r>   -8.1597    1.0000 </r>
       <r>   -7.0320    1.0000 </r>
       <r>   -5.5007    1.0000 </r>
       <r>   -3.5825    1.0000 </r>
       <r>   -1.5429    1.0000 </r>
       <r>    0.8901    1.0000 </r>
       <r>    3.2667   -0.0000 </r>
       <r>    5.1226   -0.0000 </r>
       <r>    5.8389   -0.0000 </r>
       <r>    7.0104   -0.0000 </r>
       <r>    7.4773    0.0000 </r>
       <r>    9.5368    0.0000 </r>
       <r>   10.1473    0.0000 </r>
       <r>   11.8841    0.0000 </r>
       <r>   12.0711    0.0000 </r>
       <r>   12.4690    0.0000 </r>
       <r>   12.6061    0.0000 </r>
       <r>   12.7235    0.0000 </r>
       <r>   13.2746    0.0000 </r>
       <r>   13.4484    0.0000 </r>
       <r>   13.5230    0.0000 </r>
       <r>   13.6308    0.0000 </r>
       <r>   13.8018    0.0000 </r>
       <r>   14.0224    0.0000 </r>
       <r>   14.3004    0.0000 </r>
       <r>   14.6657    0.0000 </r>
       <r>   14.8895    0.0000 </r>
       <r>   15.2524    0.0000 </r>
       <r>   15.4883    0.0000 </r>
       <r>   16.2433    0.0000 </r>
       <r>   16.3627    0.0000 </r>
      </set>
      <set comment="kpoint 2048">
       <r>   -8.8902    1.0000 </r>
       <r>   -8.1950    1.0000 </r>
       <r>   -7.0670    1.0000 </r>
       <r>   -5.5355    1.0000 </r>
       <r>   -3.6173    1.0000 </r>
       <r>   -1.5761    1.0000 </r>
       <r>    0.8570    1.0000 </r>
       <r>    3.2340   -0.0000 </r>
       <r>    5.0878   -0.0000 </r>
       <r>    5.8089   -0.0000 </r>
       <r>    6.9564   -0.0000 </r>
       <r>    7.4678    0.0000 </r>
       <r>    9.4773    0.0000 </r>
       <r>   10.1536    0.0000 </r>
       <r>   12.6146    0.0000 </r>
       <r>   12.6268    0.0000 </r>
       <r>   12.6756    0.0000 </r>
       <r>   13.1939    0.0000 </r>
       <r>   13.2481    0.0000 </r>
       <r>   13.2512    0.0000 </r>
       <r>   13.3200    0.0000 </r>
       <r>   13.4016    0.0000 </r>
       <r>   13.8249    0.0000 </r>
       <r>   13.8951    0.0000 </r>
       <r>   14.0877    0.0000 </r>
       <r>   14.1529    0.0000 </r>
       <r>   14.7928    0.0000 </r>
       <r>   14.8645    0.0000 </r>
       <r>   15.5668    0.0000 </r>
       <r>   15.6219    0.0000 </r>
       <r>   16.4682    0.0000 </r>
       <r>   16.5746    0.0000 </r>
      </set>
     </set>
    </set>
   </array>
  </eigenvalues>
  <separator name="orbital magnetization" >
   <v name="MAGDIPOLOUT">      0.00000000      0.00000000      0.00000000</v>
  </separator>
  <dos>
   <i name="efermi">      2.00633366 </i>
   <total>
    <array>
     <dimension dim="1">gridpoints</dimension>
     <dimension dim="2">spin</dimension>
     <field>energy</field>
     <field>total</field>
     <field>integrated</field>
     <set>
      <set comment="spin 1">
       <r>   -10.8902     0.0000     0.0000 </r>
       <r>   -10.7897     0.0000     0.0000 </r>
       <r>   -10.6892     0.0000     0.0000 </r>
       <r>   -10.5887    -0.0000    -0.0000 </r>
       <r>   -10.4882    -0.0000    -0.0000 </r>
       <r>   -10.3877    -0.0000    -0.0000 </r>
       <r>   -10.2872    -0.0000    -0.0000 </r>
       <r>   -10.1867    -0.0000    -0.0000 </r>
       <r>   -10.0862    -0.0000    -0.0000 </r>
       <r>    -9.9857    -0.0000    -0.0000 </r>
       <r>    -9.8852    -0.0000    -0.0000 </r>
       <r>    -9.7848    -0.0000    -0.0000 </r>
       <r>    -9.6843    -0.0000    -0.0000 </r>
       <r>    -9.5838    -0.0000    -0.0000 </r>
       <r>    -9.4833    -0.0000    -0.0000 </r>
       <r>    -9.3828    -0.0002    -0.0000 </r>
       <r>    -9.2823    -0.0014    -0.0002 </r>
       <r>    -9.1818    -0.0059    -0.0008 </r>
       <r>    -9.0813    -0.0094    -0.0017 </r>
       <r>    -8.9808     0.0178     0.0001 </r>
       <r>    -8.8803     0.1084     0.0110 </r>
       <r>    -8.7798     0.2267     0.0338 </r>
       <r>    -8.6793     0.2970     0.0636 </r>
       <r>    -8.5789     0.3087     0.0946 </r>
       <r>    -8.4784     0.2986     0.1246 </r>
       <r>    -8.3779     0.2931     0.1541 </r>
       <r>    -8.2774     0.3241     0.1867 </r>
       <r>    -8.1769     0.4203     0.2289 </r>
       <r>    -8.0764     0.5381     0.2830 </r>
       <r>    -7.9759     0.6023     0.3435 </r>
       <r>    -7.8754     0.6149     0.4053 </r>
       <r>    -7.7749     0.6082     0.4664 </r>
       <r>    -7.6744     0.6034     0.5271 </r>
       <r>    -7.5739     0.6087     0.5882 </r>
       <r>    -7.4735     0.6053     0.6491 </r>
       <r>    -7.3730     0.5959     0.7089 </r>
       <r>    -7.2725     0.6005     0.7693 </r>
       <r>    -7.1720     0.6240     0.8320 </r>
       <r>    -7.0715     0.6915     0.9015 </r>
       <r>    -6.9710     0.8174     0.9836 </r>
       <r>    -6.8705     0.9183     1.0759 </r>
       <r>    -6.7700     0.9213     1.1685 </r>
       <r>    -6.6695     0.8999     1.2589 </r>
       <r>    -6.5690     0.9226     1.3516 </r>
       <r>    -6.4685     0.9332     1.4454 </r>
       <r>    -6.3680     0.9056     1.5364 </r>
       <r>    -6.2676     0.8989     1.6267 </r>
       <r>    -6.1671     0.9260     1.7198 </r>
       <r>    -6.0666     0.9342     1.8137 </r>
       <r>    -5.9661     0.9109     1.9052 </r>
       <r>    -5.8656     0.9010     1.9958 </r>
       <r>    -5.7651     0.9128     2.0875 </r>
       <r>    -5.6646     0.9304     2.1810 </r>
       <r>    -5.5641     0.9876     2.2802 </r>
       <r>    -5.4636     1.1112     2.3919 </r>
       <r>    -5.3631     1.2060     2.5131 </r>
       <r>    -5.2626     1.2214     2.6358 </r>
       <r>    -5.1622     1.2352     2.7600 </r>
       <r>    -5.0617     1.2566     2.8862 </r>
       <r>    -4.9612     1.2435     3.0112 </r>
       <r>    -4.8607     1.2093     3.1327 </r>
       <r>    -4.7602     1.2144     3.2548 </r>
       <r>    -4.6597     1.2472     3.3801 </r>
       <r>    -4.5592     1.2546     3.5062 </r>
       <r>    -4.4587     1.2466     3.6314 </r>
       <r>    -4.3582     1.2339     3.7554 </r>
       <r>    -4.2577     1.2183     3.8779 </r>
       <r>    -4.1572     1.2234     4.0008 </r>
       <r>    -4.0567     1.2489     4.1263 </r>
       <r>    -3.9563     1.2705     4.2540 </r>
       <r>    -3.8558     1.2664     4.3812 </r>
       <r>    -3.7553     1.2252     4.5044 </r>
       <r>    -3.6548     1.2405     4.6290 </r>
       <r>    -3.5543     1.4033     4.7700 </r>
       <r>    -3.4538     1.5850     4.9293 </r>
       <r>    -3.3533     1.6216     5.0923 </r>
       <r>    -3.2528     1.5693     5.2500 </r>
       <r>    -3.1523     1.5193     5.4026 </r>
       <r>    -3.0518     1.4885     5.5522 </r>
       <r>    -2.9513     1.5452     5.7075 </r>
       <r>    -2.8509     1.6599     5.8743 </r>
       <r>    -2.7504     1.6620     6.0413 </r>
       <r>    -2.6499     1.5558     6.1977 </r>
       <r>    -2.5494     1.4695     6.3453 </r>
       <r>    -2.4489     1.4863     6.4947 </r>
       <r>    -2.3484     1.6214     6.6576 </r>
       <r>    -2.2479     1.6967     6.8281 </r>
       <r>    -2.1474     1.6260     6.9915 </r>
       <r>    -2.0469     1.5553     7.1478 </r>
       <r>    -1.9464     1.5426     7.3029 </r>
       <r>    -1.8459     1.5420     7.4578 </r>
       <r>    -1.7454     1.5804     7.6166 </r>
       <r>    -1.6450     1.6970     7.7872 </r>
       <r>    -1.5445     1.8324     7.9713 </r>
       <r>    -1.4440     1.9284     8.1651 </r>
       <r>    -1.3435     1.9671     8.3628 </r>
       <r>    -1.2430     1.9313     8.5568 </r>
       <r>    -1.1425     1.8565     8.7434 </r>
       <r>    -1.0420     1.8500     8.9293 </r>
       <r>    -0.9415     1.9571     9.1260 </r>
       <r>    -0.8410     2.0457     9.3316 </r>
       <r>    -0.7405     2.0531     9.5379 </r>
       <r>    -0.6400     2.0390     9.7428 </r>
       <r>    -0.5396     1.9764     9.9414 </r>
       <r>    -0.4391     1.8813    10.1304 </r>
       <r>    -0.3386     1.8441    10.3158 </r>
       <r>    -0.2381     1.8386    10.5005 </r>
       <r>    -0.1376     1.8205    10.6835 </r>
       <r>    -0.0371     1.8313    10.8675 </r>
       <r>     0.0634     1.8683    11.0552 </r>
       <r>     0.1639     1.8565    11.2418 </r>
       <r>     0.2644     1.7457    11.4172 </r>
       <r>     0.3649     1.6162    11.5796 </r>
       <r>     0.4654     1.6484    11.7453 </r>
       <r>     0.5659     1.8594    11.9321 </r>
       <r>     0.6663     1.9552    12.1286 </r>
       <r>     0.7668     1.8271    12.3122 </r>
       <r>     0.8673     1.7803    12.4911 </r>
       <r>     0.9678     1.9402    12.6861 </r>
       <r>     1.0683     2.1174    12.8989 </r>
       <r>     1.1688     2.2436    13.1244 </r>
       <r>     1.2693     2.3324    13.3587 </r>
       <r>     1.3698     2.2602    13.5859 </r>
       <r>     1.4703     2.1046    13.7974 </r>
       <r>     1.5708     2.1205    14.0105 </r>
       <r>     1.6713     2.2640    14.2380 </r>
       <r>     1.7717     2.3573    14.4749 </r>
       <r>     1.8722     2.3124    14.7072 </r>
       <r>     1.9727     2.1904    14.9274 </r>
       <r>     2.0732     2.1828    15.1467 </r>
       <r>     2.1737     2.2583    15.3737 </r>
       <r>     2.2742     2.2735    15.6021 </r>
       <r>     2.3747     2.2524    15.8285 </r>
       <r>     2.4752     2.2185    16.0514 </r>
       <r>     2.5757     2.1740    16.2699 </r>
       <r>     2.6762     2.1695    16.4879 </r>
       <r>     2.7767     2.1959    16.7086 </r>
       <r>     2.8772     2.1787    16.9275 </r>
       <r>     2.9776     2.0902    17.1375 </r>
       <r>     3.0781     1.9956    17.3381 </r>
       <r>     3.1786     1.9742    17.5365 </r>
       <r>     3.2791     2.1247    17.7500 </r>
       <r>     3.3796     2.4230    17.9935 </r>
       <r>     3.4801     2.6192    18.2567 </r>
       <r>     3.5806     2.6461    18.5226 </r>
       <r>     3.6811     2.6572    18.7896 </r>
       <r>     3.7816     2.6883    19.0598 </r>
       <r>     3.8821     2.6899    19.3301 </r>
       <r>     3.9826     2.6783    19.5992 </r>
       <r>     4.0830     2.7071    19.8713 </r>
       <r>     4.1835     2.7769    20.1503 </r>
       <r>     4.2840     2.7883    20.4305 </r>
       <r>     4.3845     2.6277    20.6946 </r>
       <r>     4.4850     2.2806    20.9238 </r>
       <r>     4.5855     1.9446    21.1192 </r>
       <r>     4.6860     1.9609    21.3162 </r>
       <r>     4.7865     2.3170    21.5491 </r>
       <r>     4.8870     2.6084    21.8112 </r>
       <r>     4.9875     2.7047    22.0830 </r>
       <r>     5.0880     2.7956    22.3639 </r>
       <r>     5.1885     2.9088    22.6562 </r>
       <r>     5.2889     2.9478    22.9525 </r>
       <r>     5.3894     2.8014    23.2340 </r>
       <r>     5.4899     2.6644    23.5017 </r>
       <r>     5.5904     2.8780    23.7910 </r>
       <r>     5.6909     3.2430    24.1169 </r>
       <r>     5.7914     3.3587    24.4544 </r>
       <r>     5.8919     3.1298    24.7689 </r>
       <r>     5.9924     2.8033    25.0506 </r>
       <r>     6.0929     2.7302    25.3250 </r>
       <r>     6.1934     2.8934    25.6157 </r>
       <r>     6.2939     3.0639    25.9236 </r>
       <r>     6.3943     3.2125    26.2465 </r>
       <r>     6.4948     3.3782    26.5859 </r>
       <r>     6.5953     3.4802    26.9357 </r>
       <r>     6.6958     3.4697    27.2843 </r>
       <r>     6.7963     3.4023    27.6262 </r>
       <r>     6.8968     3.3638    27.9643 </r>
       <r>     6.9973     3.3884    28.3048 </r>
       <r>     7.0978     3.4233    28.6488 </r>
       <r>     7.1983     3.5080    29.0013 </r>
       <r>     7.2988     3.6139    29.3645 </r>
       <r>     7.3993     3.5504    29.7213 </r>
       <r>     7.4998     3.4343    30.0664 </r>
       <r>     7.6002     3.5613    30.4243 </r>
       <r>     7.7007     3.8312    30.8093 </r>
       <r>     7.8012     3.9669    31.2079 </r>
       <r>     7.9017     3.9518    31.6050 </r>
       <r>     8.0022     3.8412    31.9910 </r>
       <r>     8.1027     3.6790    32.3607 </r>
       <r>     8.2032     3.6285    32.7254 </r>
       <r>     8.3037     3.7393    33.1011 </r>
       <r>     8.4042     3.7791    33.4809 </r>
       <r>     8.5047     3.6464    33.8473 </r>
       <r>     8.6052     3.6098    34.2101 </r>
       <r>     8.7056     3.7440    34.5863 </r>
       <r>     8.8061     3.8027    34.9685 </r>
       <r>     8.9066     3.8314    35.3535 </r>
       <r>     9.0071     3.9907    35.7545 </r>
       <r>     9.1076     4.0342    36.1599 </r>
       <r>     9.2081     3.8307    36.5449 </r>
       <r>     9.3086     3.7635    36.9231 </r>
       <r>     9.4091     3.9594    37.3210 </r>
       <r>     9.5096     4.0103    37.7240 </r>
       <r>     9.6101     3.8771    38.1136 </r>
       <r>     9.7106     3.9198    38.5075 </r>
       <r>     9.8111     4.0810    38.9176 </r>
       <r>     9.9115     4.1402    39.3336 </r>
       <r>    10.0120     4.0949    39.7451 </r>
       <r>    10.1125     3.9941    40.1465 </r>
       <r>    10.2130     3.9842    40.5469 </r>
       <r>    10.3135     4.1086    40.9598 </r>
       <r>    10.4140     4.1838    41.3802 </r>
       <r>    10.5145     4.1556    41.7978 </r>
       <r>    10.6150     4.1263    42.2125 </r>
       <r>    10.7155     4.1336    42.6279 </r>
       <r>    10.8160     4.1444    43.0443 </r>
       <r>    10.9165     4.0793    43.4543 </r>
       <r>    11.0169     3.9568    43.8519 </r>
       <r>    11.1174     3.9477    44.2486 </r>
       <r>    11.2179     4.1162    44.6622 </r>
       <r>    11.3184     4.3184    45.0962 </r>
       <r>    11.4189     4.4063    45.5390 </r>
       <r>    11.5194     4.3442    45.9756 </r>
       <r>    11.6199     4.1892    46.3965 </r>
       <r>    11.7204     4.0706    46.8056 </r>
       <r>    11.8209     4.1587    47.2235 </r>
       <r>    11.9214     4.4173    47.6674 </r>
       <r>    12.0219     4.5518    48.1248 </r>
       <r>    12.1224     4.4422    48.5712 </r>
       <r>    12.2228     4.3014    49.0035 </r>
       <r>    12.3233     4.3319    49.4388 </r>
       <r>    12.4238     4.5103    49.8920 </r>
       <r>    12.5243     4.7310    50.3675 </r>
       <r>    12.6248     4.8363    50.8535 </r>
       <r>    12.7253     4.7034    51.3261 </r>
       <r>    12.8258     4.5122    51.7796 </r>
       <r>    12.9263     4.5682    52.2386 </r>
       <r>    13.0268     4.7929    52.7203 </r>
       <r>    13.1273     4.8446    53.2071 </r>
       <r>    13.2278     4.7482    53.6843 </r>
       <r>    13.3282     4.7035    54.1569 </r>
       <r>    13.4287     4.6238    54.6216 </r>
       <r>    13.5292     4.5387    55.0777 </r>
       <r>    13.6297     4.5920    55.5391 </r>
       <r>    13.7302     4.6382    56.0052 </r>
       <r>    13.8307     4.5597    56.4634 </r>
       <r>    13.9312     4.5008    56.9157 </r>
       <r>    14.0317     4.5580    57.3738 </r>
       <r>    14.1322     4.5617    57.8322 </r>
       <r>    14.2327     4.3661    58.2709 </r>
       <r>    14.3332     4.1320    58.6862 </r>
       <r>    14.4337     4.0701    59.0952 </r>
       <r>    14.5341     4.1629    59.5135 </r>
       <r>    14.6346     4.1746    59.9330 </r>
       <r>    14.7351     3.9967    60.3346 </r>
       <r>    14.8356     3.8003    60.7165 </r>
       <r>    14.9361     3.5834    61.0766 </r>
       <r>    15.0366     3.2397    61.4022 </r>
       <r>    15.1371     2.9772    61.7014 </r>
       <r>    15.2376     2.9372    61.9965 </r>
       <r>    15.3381     2.8495    62.2829 </r>
       <r>    15.4386     2.5330    62.5374 </r>
       <r>    15.5391     2.1955    62.7581 </r>
       <r>    15.6395     2.0187    62.9609 </r>
       <r>    15.7400     1.9109    63.1530 </r>
       <r>    15.8405     1.7301    63.3268 </r>
       <r>    15.9410     1.4624    63.4738 </r>
       <r>    16.0415     1.1754    63.5919 </r>
       <r>    16.1420     0.9246    63.6848 </r>
       <r>    16.2425     0.7600    63.7612 </r>
       <r>    16.3430     0.6762    63.8291 </r>
       <r>    16.4435     0.5848    63.8879 </r>
       <r>    16.5440     0.4366    63.9318 </r>
       <r>    16.6445     0.2648    63.9584 </r>
       <r>    16.7450     0.1324    63.9717 </r>
       <r>    16.8454     0.0829    63.9800 </r>
       <r>    16.9459     0.0834    63.9884 </r>
       <r>    17.0464     0.0699    63.9954 </r>
       <r>    17.1469     0.0355    63.9990 </r>
       <r>    17.2474     0.0097    64.0000 </r>
       <r>    17.3479     0.0012    64.0001 </r>
       <r>    17.4484    -0.0001    64.0001 </r>
       <r>    17.5489    -0.0004    64.0000 </r>
       <r>    17.6494    -0.0003    64.0000 </r>
       <r>    17.7499    -0.0001    64.0000 </r>
       <r>    17.8504    -0.0000    64.0000 </r>
       <r>    17.9508    -0.0000    64.0000 </r>
       <r>    18.0513    -0.0000    64.0000 </r>
       <r>    18.1518    -0.0000    64.0000 </r>
       <r>    18.2523    -0.0000    64.0000 </r>
       <r>    18.3528    -0.0000    64.0000 </r>
       <r>    18.4533    -0.0000    64.0000 </r>
       <r>    18.5538    -0.0000    64.0000 </r>
       <r>    18.6543     0.0000    64.0000 </r>
       <r>    18.7548     0.0000    64.0000 </r>
       <r>    18.8553     0.0000    64.0000 </r>
       <r>    18.9558     0.0000    64.0000 </r>
       <r>    19.0563     0.0000    64.0000 </r>
       <r>    19.1567     0.0000    64.0000 </r>
       <r>    19.2572     0.0000    64.0000 </r>
      </set>
     </set>
    </array>
   </total>
  </dos>
 </calculation>
 <structure name="finalpos" >
  <crystal>
   <varray name="basis" >
    <v>       2.85062132       0.00000000       0.17445519 </v>
    <v>       1.41997242       2.47178483       0.17445519 </v>
    <v>       0.01000000       0.00000000      23.37699570 </v>
   </varray>
   <i name="volume">    164.71286415 </i>
   <varray name="rec_basis" >
    <v>       0.35080990      -0.20152005      -0.00015007 </v>
    <v>       0.00000000       0.40456596       0.00000000 </v>
    <v>      -0.00261798      -0.00151527       0.04277822 </v>
   </varray>
  </crystal>
  <varray name="positions" >
   <v>       0.65000000       0.65000000       0.05000000 </v>
   <v>       0.95000000       0.95000000       0.15000000 </v>
   <v>       0.25000000       0.25000000       0.25000000 </v>
   <v>       0.55000000       0.55000000       0.35000000 </v>
   <v>       0.85000000       0.85000000       0.45000000 </v>
  </varray>
 </structure>
</modeling>
