
4 atoms
1 atom types
   0.0000000000    3.4969517840 xlo xhi
   0.0000000000    3.4969517840 ylo yhi
   0.0000000000    3.4969517840 zlo zhi
  -0.0000000000   -0.0000000000   -0.0000000000 xy xz yz

Atoms # atomic

     1      1    0.0000000000    0.0000000000    0.0000000000
     2      1    0.0000000000    1.7484758920    1.7484758920
     3      1    1.7484758920    1.7484758920    0.0000000000
     4      1    1.7484758920    0.0000000000    1.7484758920
