ITEM: TIMESTEP
0
ITEM: NUMBER OF ATOMS
4
ITEM: BOX BOUNDS xy xz yz pp pp pp
0.0000000000000000e+00 3.4969517840000002e+00 -0.0000000000000000e+00
0.0000000000000000e+00 3.4969517840000002e+00 -0.0000000000000000e+00
0.0000000000000000e+00 3.4969517840000002e+00 -0.0000000000000000e+00
ITEM: ATOMS id type xs ys zs fx fy fz
1 1 0 0 0 -1.06581e-14 -1.03569e-14 -1.06255e-14
3 1 0.5 0.5 0 1.04361e-14 1.02672e-14 -1.04797e-14
2 1 0 0.5 0.5 -1.06581e-14 9.85746e-15 1.04235e-14
4 1 0.5 0 0.5 1.06581e-14 -1.00206e-14 1.06e-14
ITEM: TIMESTEP
1
ITEM: NUMBER OF ATOMS
4
ITEM: BOX BOUNDS xy xz yz pp pp pp
0.0000000000000000e+00 3.4969517840000002e+00 -0.0000000000000000e+00
0.0000000000000000e+00 3.4969517840000002e+00 -0.0000000000000000e+00
0.0000000000000000e+00 3.4969517840000002e+00 -0.0000000000000000e+00
ITEM: ATOMS id type xs ys zs fx fy fz
4 1 0.5 1 0.5 -1.08802e-14 1.03139e-14 -1.07495e-14
3 1 0.5 0.5 1 -1.08802e-14 -1.01466e-14 1.10297e-14
2 1 1 0.5 0.5 1.06581e-14 -1.04065e-14 -1.06139e-14
1 1 1 1 1 1.04361e-14 1.0672e-14 1.05275e-14
