ITEM: TIMESTEP
0
ITEM: NUMBER OF ATOMS
4
ITEM: BOX BOUNDS xy xz yz pp pp pp
0.0000000000000000e+00 4.0319999997000000e+00 0.0000000000000000e+00
0.0000000000000000e+00 4.0319999997000000e+00 0.0000000000000000e+00
0.0000000000000000e+00 4.0117893460999996e+00 0.0000000000000000e+00
ITEM: ATOMS id type xs ys zs fx fy fz
1 1 0 0 0 -2.35592e-10 -2.35592e-10 -2.37233e-10
4 1 0.5 0 0.5 2.35592e-10 -2.35592e-10 2.37234e-10
2 1 0 0.5 0.5 -2.35592e-10 2.35592e-10 2.37233e-10
3 1 0.5 0.5 0 2.35592e-10 2.35592e-10 -2.37233e-10
ITEM: TIMESTEP
1
ITEM: NUMBER OF ATOMS
4
ITEM: BOX BOUNDS xy xz yz pp pp pp
0.0000000000000000e+00 4.0319999997000000e+00 0.0000000000000000e+00
0.0000000000000000e+00 4.0319999997000000e+00 0.0000000000000000e+00
0.0000000000000000e+00 4.0117893460999996e+00 0.0000000000000000e+00
ITEM: ATOMS id type xs ys zs fx fy fz
3 1 0.5 0.5 1 5.51219e-13 5.52121e-13 1.09276e-12
4 1 0.5 1 0.5 5.50837e-13 -5.50954e-13 -1.09243e-12
2 1 1 0.5 0.5 -5.51139e-13 5.50256e-13 -1.09024e-12
1 1 1 1 1 -5.50934e-13 -5.51441e-13 1.08978e-12
