ITEM: TIMESTEP
0
ITEM: NUMBER OF ATOMS
4
ITEM: BOX BOUNDS xy xz yz pp pp pp
0.0000000000000000e+00 4.0319999997000000e+00 0.0000000000000000e+00
0.0000000000000000e+00 4.0319999997000000e+00 0.0000000000000000e+00
0.0000000000000000e+00 4.0521098500999999e+00 0.0000000000000000e+00
ITEM: ATOMS id type xs ys zs fx fy fz
1 1 0 0 0 -2.27218e-10 -2.27218e-10 -2.25504e-10
3 1 0.5 0.5 0 2.27218e-10 2.27218e-10 -2.25504e-10
2 1 0 0.5 0.5 -2.27218e-10 2.27218e-10 2.25504e-10
4 1 0.5 0 0.5 2.27218e-10 -2.27218e-10 2.25504e-10
ITEM: TIMESTEP
1
ITEM: NUMBER OF ATOMS
4
ITEM: BOX BOUNDS xy xz yz pp pp pp
0.0000000000000000e+00 4.0319999997000000e+00 0.0000000000000000e+00
0.0000000000000000e+00 4.0319999997000000e+00 0.0000000000000000e+00
0.0000000000000000e+00 4.0521098500999999e+00 0.0000000000000000e+00
ITEM: ATOMS id type xs ys zs fx fy fz
2 1 1 0.5 0.5 5.66637e-13 -5.66359e-13 1.14091e-12
3 1 0.5 0.5 1 -5.66644e-13 -5.66047e-13 -1.13997e-12
4 1 0.5 1 0.5 -5.66325e-13 5.66651e-13 1.14088e-12
1 1 1 1 1 5.66346e-13 5.6573e-13 -1.14184e-12
