
4 atoms
1 atom types
   0.0000000000    3.8928531984 xlo xhi
   0.0000000000    3.8928531984 ylo yhi
   0.0000000000    3.8928531984 zlo zhi
   0.0000000000   -0.0000000000   -0.0000000000 xy xz yz

Atoms # atomic

     1      1    0.0000000000    0.0000000000    0.0000000000
     2      1    0.0000000000    1.9464265992    1.9464265992
     3      1    1.9464265992    1.9464265992    0.0000000000
     4      1    1.9464265992    0.0000000000    1.9464265992
