ITEM: TIMESTEP
0
ITEM: NUMBER OF ATOMS
4
ITEM: BOX BOUNDS xy xz yz pp pp pp
0.0000000000000000e+00 3.8928531984000001e+00 0.0000000000000000e+00
0.0000000000000000e+00 3.8928531984000001e+00 -0.0000000000000000e+00
0.0000000000000000e+00 3.8928531984000001e+00 -0.0000000000000000e+00
ITEM: ATOMS id type xs ys zs fx fy fz
1 1 0 0 0 -5.55112e-17 0 -5.55112e-16
4 1 0.5 0 0.5 6.245e-17 -7.28584e-17 -1.70003e-16
3 1 0.5 0.5 0 6.93889e-18 -1.00614e-16 -1.14492e-16
2 1 0 0.5 0.5 -5.55112e-17 2.77556e-17 -2.22045e-16
ITEM: TIMESTEP
1
ITEM: NUMBER OF ATOMS
4
ITEM: BOX BOUNDS xy xz yz pp pp pp
0.0000000000000000e+00 3.8928531984000001e+00 0.0000000000000000e+00
0.0000000000000000e+00 3.8928531984000001e+00 -0.0000000000000000e+00
0.0000000000000000e+00 3.8928531984000001e+00 -0.0000000000000000e+00
ITEM: ATOMS id type xs ys zs fx fy fz
1 1 0 0 0 -5.55112e-17 0 -5.55112e-16
4 1 0.5 0 0.5 6.245e-17 -7.28584e-17 -1.70003e-16
3 1 0.5 0.5 0 6.93889e-18 -1.00614e-16 -1.14492e-16
2 1 0 0.5 0.5 -5.55112e-17 2.77556e-17 -2.22045e-16
