ITEM: TIMESTEP
0
ITEM: NUMBER OF ATOMS
4
ITEM: BOX BOUNDS xy xz yz pp pp pp
0.0000000000000000e+00 4.0773053075999997e+00 4.0369359500000000e-02
0.0000000000000000e+00 4.0367340963000000e+00 0.0000000000000000e+00
0.0000000000000000e+00 4.0369359481000000e+00 0.0000000000000000e+00
ITEM: ATOMS id type xs ys zs fx fy fz
1 1 0 0 0 1.30777e-10 2.35737e-10 2.36873e-10
4 1 0.5 0 0.5 -3.43137e-10 2.5306e-10 -2.36873e-10
3 1 0.5 0.5 0 -1.30778e-10 -2.35737e-10 2.36873e-10
2 1 1 0.5 0.5 3.43138e-10 -2.5306e-10 -2.36873e-10
ITEM: TIMESTEP
2
ITEM: NUMBER OF ATOMS
4
ITEM: BOX BOUNDS xy xz yz pp pp pp
0.0000000000000000e+00 4.0773053075999997e+00 4.0369359500000000e-02
0.0000000000000000e+00 4.0367340963000000e+00 0.0000000000000000e+00
0.0000000000000000e+00 4.0369359481000000e+00 0.0000000000000000e+00
ITEM: ATOMS id type xs ys zs fx fy fz
1 1 1 6.18591e-12 6.20839e-12 2.53672e-13 2.79918e-13 -5.97096e-13
4 1 0.5 6.18513e-12 0.5 -3.018e-13 3.12838e-13 5.96187e-13
3 1 0.5 0.5 6.20843e-12 -2.53297e-13 -2.78822e-13 -5.95886e-13
2 1 1 0.5 0.5 3.01342e-13 -3.14035e-13 5.96748e-13
