ITEM: TIMESTEP
0
ITEM: NUMBER OF ATOMS
4
ITEM: BOX BOUNDS xy xz yz pp pp pp
0.0000000000000000e+00 4.0319999997000000e+00 0.0000000000000000e+00
0.0000000000000000e+00 4.0117893460999996e+00 0.0000000000000000e+00
0.0000000000000000e+00 4.0319999997000000e+00 0.0000000000000000e+00
ITEM: ATOMS id type xs ys zs fx fy fz
1 1 0 0 0 -2.35592e-10 -2.37233e-10 -2.35592e-10
3 1 0.5 0.5 0 2.35592e-10 2.37234e-10 -2.35592e-10
2 1 0 0.5 0.5 -2.35592e-10 2.37234e-10 2.35592e-10
4 1 0.5 0 0.5 2.35592e-10 -2.37234e-10 2.35592e-10
ITEM: TIMESTEP
1
ITEM: NUMBER OF ATOMS
4
ITEM: BOX BOUNDS xy xz yz pp pp pp
0.0000000000000000e+00 4.0319999997000000e+00 0.0000000000000000e+00
0.0000000000000000e+00 4.0117893460999996e+00 0.0000000000000000e+00
0.0000000000000000e+00 4.0319999997000000e+00 0.0000000000000000e+00
ITEM: ATOMS id type xs ys zs fx fy fz
4 1 0.5 1 0.5 5.51198e-13 1.09121e-12 5.52348e-13
3 1 0.5 0.5 1 5.5056e-13 -1.08948e-12 -5.51548e-13
2 1 1 0.5 0.5 -5.5083e-13 -1.09114e-12 5.51444e-13
1 1 1 1 1 -5.50879e-13 1.0895e-12 -5.52435e-13
