
5 atoms
1 atom types
   0.0000000000    2.8510545415 xlo xhi
   0.0000000000    2.4690856605 ylo yhi
   0.0000000000   23.2781523859 zlo zhi
   1.4255272707    1.4355085966    0.8230069703 xy xz yz

Atoms # atomic

     1      1    2.8515536078    1.6460560278    1.1639076193
     2      1    4.2780790111    2.4690824230    3.4917228579
     3      1    1.4280226022    0.8230231577    5.8195380965
     4      1    2.8545480055    1.6460495529    8.1473533351
     5      1    4.2810734088    2.4690759480   10.4751685737
