ITEM: TIMESTEP
0
ITEM: NUMBER OF ATOMS
5
ITEM: BOX BOUNDS xy xz yz pp pp pp
0.0000000000000000e+00 5.7120904088000000e+00 1.4255272707000000e+00
0.0000000000000000e+00 3.2920926308000000e+00 1.4355085966000001e+00
0.0000000000000000e+00 2.3278152385900000e+01 8.2300697030000003e-01
ITEM: ATOMS id type xs ys zs fx fy fz
1 1 0.65 0.65 0.05 0.00049874 -1.63717e-06 0.114817
2 1 0.95 0.95 0.15 -6.7028e-07 2.68674e-08 -0.0903892
3 1 0.25 0.25 0.25 -1.36002e-15 -3.0393e-13 -6.10623e-16
4 1 0.55 0.55 0.35 6.7028e-07 -2.69167e-08 0.0903892
5 1 0.85 0.85 0.45 -0.00049874 1.63722e-06 -0.114817
