ITEM: TIMESTEP
0
ITEM: NUMBER OF ATOMS
4
ITEM: BOX BOUNDS xy xz yz pp pp pp
0.0000000000000000e+00 4.0499988870000001e+00 0.0000000000000000e+00
0.0000000000000000e+00 4.0499988870000001e+00 0.0000000000000000e+00
0.0000000000000000e+00 4.0902983758999998e+00 0.0000000000000000e+00
ITEM: ATOMS id type xs ys zs fx fy fz
1 1 0 0 0 -2.77556e-17 -1.53089e-16 7.27481e-10
4 1 0.5 0 0.5 0 1.39212e-16 -7.27481e-10
3 1 0.5 0.5 0 2.77556e-17 -8.37004e-17 7.27481e-10
2 1 0 0.5 0.5 0 9.75782e-17 -7.27481e-10
ITEM: TIMESTEP
1
ITEM: NUMBER OF ATOMS
4
ITEM: BOX BOUNDS xy xz yz pp pp pp
0.0000000000000000e+00 4.0499988870000001e+00 0.0000000000000000e+00
0.0000000000000000e+00 4.0499988870000001e+00 0.0000000000000000e+00
0.0000000000000000e+00 4.0902983758999998e+00 0.0000000000000000e+00
ITEM: ATOMS id type xs ys zs fx fy fz
1 1 0 0 6.11211e-12 -5.55112e-17 -1.7434e-16 1.08802e-14
4 1 0.5 1.18126e-18 0.5 0 2.34188e-17 -1.07969e-14
3 1 0.5 0.5 6.11211e-12 8.32667e-17 5.62148e-17 1.06859e-14
2 1 0 0.5 0.5 -2.77556e-17 9.30245e-17 -1.07692e-14
