ITEM: TIMESTEP
0
ITEM: NUMBER OF ATOMS
4
ITEM: BOX BOUNDS xy xz yz pp pp pp
0.0000000000000000e+00 4.0499988870000001e+00 0.0000000000000000e+00
0.0000000000000000e+00 4.0092943475000000e+00 0.0000000000000000e+00
0.0000000000000000e+00 4.0499988870000001e+00 0.0000000000000000e+00
ITEM: ATOMS id type xs ys zs fx fy fz
1 1 0 0 0 0 7.81838e-10 -1.52656e-16
2 1 0 0.5 0.5 0 -7.81838e-10 1.52656e-16
3 1 0.5 0.5 0 0 -7.81837e-10 1.52656e-16
4 1 0.5 0 0.5 0 7.81837e-10 -1.52656e-16
ITEM: TIMESTEP
1
ITEM: NUMBER OF ATOMS
4
ITEM: BOX BOUNDS xy xz yz pp pp pp
0.0000000000000000e+00 4.0499988870000001e+00 0.0000000000000000e+00
0.0000000000000000e+00 4.0092943475000000e+00 0.0000000000000000e+00
0.0000000000000000e+00 4.0499988870000001e+00 0.0000000000000000e+00
ITEM: ATOMS id type xs ys zs fx fy fz
1 1 0 6.2355e-12 0 -1.63064e-16 1.61411e-14 2.22045e-16
2 1 0 0.5 0.5 2.42861e-17 -1.63133e-14 -1.661e-16
3 1 0.5 0.5 1.20526e-18 2.77556e-17 -1.61255e-14 -2.79941e-16
4 1 0.5 6.2355e-12 0.5 1.11022e-16 1.63064e-14 2.23129e-16
