 vasp.5.4.4.18Apr17-6-g9f103f2a35 (build Nov 07 2022 11:18:25) complex          
  
 executed on             LinuxIFC date 2024.05.28  10:12:37
 running on   32 total cores
 distrk:  each k-point on   32 cores,    1 groups
 distr:  one band on NCORES_PER_BAND=   1 cores,   32 groups


--------------------------------------------------------------------------------------------------------


 INCAR:
 POTCAR:    PAW_PBE Al 04Jan2001                  

 ----------------------------------------------------------------------------- 
|                                                                             |
|           W    W    AA    RRRRR   N    N  II  N    N   GGGG   !!!           |
|           W    W   A  A   R    R  NN   N  II  NN   N  G    G  !!!           |
|           W    W  A    A  R    R  N N  N  II  N N  N  G       !!!           |
|           W WW W  AAAAAA  RRRRR   N  N N  II  N  N N  G  GGG   !            |
|           WW  WW  A    A  R   R   N   NN  II  N   NN  G    G                |
|           W    W  A    A  R    R  N    N  II  N    N   GGGG   !!!           |
|                                                                             |
|      For optimal performance we recommend to set                            |
|        NCORE= 4 - approx SQRT( number of cores)                             |
|      NCORE specifies how many cores store one orbital (NPAR=cpu/NCORE).     |
|      This setting can  greatly improve the performance of VASP for DFT.     |
|      The default,   NCORE=1            might be grossly inefficient         |
|      on modern multi-core architectures or massively parallel machines.     |
|      Do your own testing !!!!                                               |
|      Unfortunately you need to use the default for GW and RPA calculations. |
|      (for HF NCORE is supported but not extensively tested yet)             |
|                                                                             |
 ----------------------------------------------------------------------------- 

 POTCAR:    PAW_PBE Al 04Jan2001                  
   SHA256 =  17880443556af62b473fe41b62a467bd001ad55d2cabe504a3f22e34d4e9db96 Al
   COPYR  = (c) Copyright 04Jan2001 Georg Kresse                                
   COPYR  = This file is part of the software VASP. Any use, copying, and all ot
   COPYR  = If you do not have a valid VASP license, you may not use, copy or di
   VRHFIN =Al: s2p1                                                             
   LEXCH  = PE                                                                  
   EATOM  =    53.5387 eV,    3.9350 Ry                                         
                                                                                
   TITEL  = PAW_PBE Al 04Jan2001                                                
   LULTRA =        F    use ultrasoft PP ?                                      
   IUNSCR =        1    unscreen: 0-lin 1-nonlin 2-no                           
   RPACOR =    1.500    partial core radius                                     
   POMASS =   26.981; ZVAL   =    3.000    mass and valenz                      
   RCORE  =    1.900    outmost cutoff radius                                   
   RWIGS  =    2.650; RWIGS  =    1.402    wigner-seitz radius (au A)           
   ENMAX  =  240.300; ENMIN  =  180.225 eV                                      
   ICORE  =        2    local potential                                         
   LCOR   =        T    correct aug charges                                     
   LPAW   =        T    paw PP                                                  
   EAUG   =  291.052                                                            
   DEXC   =    0.000                                                            
   RMAX   =    1.939    core radius for proj-oper                               
   RAUG   =    1.300    factor for augmentation sphere                          
   RDEP   =    1.966    radius for radial grids                                 
   RDEPT  =    1.856    core radius for aug-charge                              
                                                                                
   Atomic configuration                                                         
    6 entries                                                                   
     n  l   j            E        occ.                                          
     1  0  0.50     -1511.1048   2.0000                                         
     2  0  0.50      -108.1629   2.0000                                         
     2  1  1.50       -69.6402   6.0000                                         
     3  0  0.50        -7.7528   2.0000                                         
     3  1  1.50        -2.7121   1.0000                                         
     3  2  2.50        -2.7212   0.0000                                         
   Description                                                                  
     l       E           TYP  RCUT    TYP  RCUT                                 
     0     -7.7528455     23  1.900                                             
     0     -3.3096929     23  1.900                                             
     1     -2.7120682     23  1.900                                             
     1     13.6058260     23  1.900                                             
     2     -2.7211652      7  1.900                                             
  local pseudopotential read in
  partial core-charges read in
  partial kinetic energy density read in
  atomic valenz-charges read in
  non local Contribution for L=           0  read in
    real space projection operators read in
  non local Contribution for L=           0  read in
    real space projection operators read in
  non local Contribution for L=           1  read in
    real space projection operators read in
  non local Contribution for L=           1  read in
    real space projection operators read in
    PAW grid and wavefunctions read in
 
   number of l-projection  operators is LMAX  =           4
   number of lm-projection operators is LMMAX =           8
 
 Optimization of the real space projectors (new method)

 maximal supplied QI-value         = 19.84
 optimisation between [QCUT,QGAM] = [ 10.12, 20.44] = [ 28.68,116.96] Ry 
 Optimized for a Real-space Cutoff    1.38 Angstroem

   l    n(q)    QCUT    max X(q) W(low)/X(q) W(high)/X(q)  e(spline) 
   0      8    10.119   176.870    0.39E-04    0.93E-04    0.54E-07
   0      8    10.119   105.762    0.37E-04    0.91E-04    0.53E-07
   1      8    10.119    55.370    0.18E-03    0.13E-03    0.19E-06
   1      8    10.119    20.208    0.17E-03    0.12E-03    0.18E-06
  PAW_PBE Al 04Jan2001                  :
 energy of atom  1       EATOM=  -53.5387
 kinetic energy error for atom=    0.0005 (will be added to EATOM!!)
 
 
 POSCAR: Al12                                    
  positions in direct lattice
  No initial velocities read in
 exchange correlation table for  LEXCH =        8
   RHO(1)=    0.500       N(1)  =     2000
   RHO(2)=  100.500       N(2)  =     4000
 


--------------------------------------------------------------------------------------------------------


 ion  position               nearest neighbor table
   1  0.446  0.161  0.946-   2 2.86   4 2.86   3 2.86   7 2.86   3 2.86   4 2.86   4 2.86   3 2.86
                             2 2.86
   2  0.875  0.375  0.875-   1 2.86   5 2.86   7 2.86   4 2.86   8 2.86   3 2.86   4 2.86   7 2.86
                             7 2.86   4 2.86   1 2.86   5 2.86
   3  0.732  0.554  0.982-   4 2.86   1 2.86   2 2.86   1 2.86   1 2.86   4 2.86
   4  0.161  0.768  0.911-   7 2.86   3 2.86   1 2.86   2 2.86   5 2.86   2 2.86   1 2.86   1 2.86
                             2 2.86   3 2.86   7 2.86
   5  0.304  0.589  0.804-   2 2.86   6 2.86   7 2.86   8 2.86   4 2.86  11 2.86   8 2.86   7 2.86
                             7 2.86   8 2.86   2 2.86   6 2.86
   6  0.732  0.804  0.732-   9 2.86   5 2.86  11 2.86   8 2.86  12 2.86   7 2.86  11 2.86   8 2.86
                            11 2.86   8 2.86   9 2.86   5 2.86
   7  0.589  0.982  0.839-   4 2.86   8 2.86   5 2.86   2 2.86   1 2.86   6 2.86   2 2.86   5 2.86
                             5 2.86   2 2.86   4 2.86   8 2.86
   8  0.018  0.196  0.768-   7 2.86  11 2.86   5 2.86   6 2.86   2 2.86   9 2.86   5 2.86   6 2.86
                             5 2.86   6 2.86   7 2.86  11 2.86
   9  0.161  0.018  0.661-  10 2.86   6 2.86  11 2.86  12 2.86   8 2.86  12 2.86  11 2.86  11 2.86
                            12 2.86  10 2.86   6 2.86
  10  0.589  0.232  0.589-   9 2.86  12 2.86  11 2.86  12 2.86  12 2.86   9 2.86
  11  0.446  0.411  0.696-  12 2.86   8 2.86   9 2.86   6 2.86  10 2.86   5 2.86   6 2.86   9 2.86
                             9 2.86   6 2.86  12 2.86   8 2.86
  12  0.875  0.625  0.625-  11 2.86  10 2.86   9 2.86   6 2.86   9 2.86  10 2.86  10 2.86   9 2.86
                            11 2.86
 
  Warning from LATTYP: Got some problem with cell dimensions!
  Tried to take original basis but could not verify dimensions!
  LATTYP: Found a triclinic cell.
 ALAT       =     4.9466584276
 B/A-ratio  =     0.8164965809
 C/A-ratio  =     5.2279710758
 COS(alpha) =     0.0003854572
 COS(beta)  =     0.1914351535
 COS(gamma) =     0.4082482905
  
  Lattice vectors:
  
 A1 = (  -2.0002419274,  -4.5127835416,  -0.3213199938)
 A2 = (  -4.0261279821,   0.0000000000,  -0.3213199938)
 A3 = (   2.0158860547,  -4.5127835416, -25.3842795077)


Analysis of symmetry for initial positions (statically):
=====================================================================
 Subroutine PRICEL returns:
 Original cell was already a primitive cell.
 

 Routine SETGRP: Setting up the symmetry group for a 
 triclinic supercell.


 Subroutine GETGRP returns: Found  2 space group operations
 (whereof  1 operations were pure point group operations)
 out of a pool of  2 trial point group operations.


The static configuration has the point symmetry C_1 .
 The point group associated with its full space group is S_2 .


Analysis of symmetry for dynamics (positions and initial velocities):
=====================================================================
 Subroutine PRICEL returns:
 Original cell was already a primitive cell.
 

 Routine SETGRP: Setting up the symmetry group for a 
 triclinic supercell.


 Subroutine GETGRP returns: Found  2 space group operations
 (whereof  1 operations were pure point group operations)
 out of a pool of  2 trial point group operations.


The dynamic configuration has the point symmetry C_1 .
 The point group associated with its full space group is S_2 .


 Subroutine INISYM returns: Found  2 space group operations
 (whereof  1 operations are pure point group operations),
 and found     1 'primitive' translations

 
 
 KPOINTS: Automatic kpoint scheme                 

Automatic generation of k-mesh.
Space group operators:
 irot       det(A)        alpha          n_x          n_y          n_z        tau_x        tau_y        tau_z
    1     1.000000     0.000000     1.000000     0.000000     0.000000     0.000000     0.000000     0.000000
    2    -1.000000     0.000000     1.000000     0.000000     0.000000     0.321429    -1.214286    -0.428571
 
 Subroutine IBZKPT returns following result:
 ===========================================
 
 Found    792 irreducible k-points:
 
 Following reciprocal coordinates:
            Coordinates               Weight
  0.022727  0.027778  0.125000      2.000000
  0.068182  0.027778  0.125000      2.000000
  0.113636  0.027778  0.125000      2.000000
  0.159091  0.027778  0.125000      2.000000
  0.204545  0.027778  0.125000      2.000000
  0.250000  0.027778  0.125000      2.000000
  0.295455  0.027778  0.125000      2.000000
  0.340909  0.027778  0.125000      2.000000
  0.386364  0.027778  0.125000      2.000000
  0.431818  0.027778  0.125000      2.000000
  0.477273  0.027778  0.125000      2.000000
 -0.477273  0.027778  0.125000      2.000000
 -0.431818  0.027778  0.125000      2.000000
 -0.386364  0.027778  0.125000      2.000000
 -0.340909  0.027778  0.125000      2.000000
 -0.295455  0.027778  0.125000      2.000000
 -0.250000  0.027778  0.125000      2.000000
 -0.204545  0.027778  0.125000      2.000000
 -0.159091  0.027778  0.125000      2.000000
 -0.113636  0.027778  0.125000      2.000000
 -0.068182  0.027778  0.125000      2.000000
 -0.022727  0.027778  0.125000      2.000000
  0.022727  0.083333  0.125000      2.000000
  0.068182  0.083333  0.125000      2.000000
  0.113636  0.083333  0.125000      2.000000
  0.159091  0.083333  0.125000      2.000000
  0.204545  0.083333  0.125000      2.000000
  0.250000  0.083333  0.125000      2.000000
  0.295455  0.083333  0.125000      2.000000
  0.340909  0.083333  0.125000      2.000000
  0.386364  0.083333  0.125000      2.000000
  0.431818  0.083333  0.125000      2.000000
  0.477273  0.083333  0.125000      2.000000
 -0.477273  0.083333  0.125000      2.000000
 -0.431818  0.083333  0.125000      2.000000
 -0.386364  0.083333  0.125000      2.000000
 -0.340909  0.083333  0.125000      2.000000
 -0.295455  0.083333  0.125000      2.000000
 -0.250000  0.083333  0.125000      2.000000
 -0.204545  0.083333  0.125000      2.000000
 -0.159091  0.083333  0.125000      2.000000
 -0.113636  0.083333  0.125000      2.000000
 -0.068182  0.083333  0.125000      2.000000
 -0.022727  0.083333  0.125000      2.000000
  0.022727  0.138889  0.125000      2.000000
  0.068182  0.138889  0.125000      2.000000
  0.113636  0.138889  0.125000      2.000000
  0.159091  0.138889  0.125000      2.000000
  0.204545  0.138889  0.125000      2.000000
  0.250000  0.138889  0.125000      2.000000
  0.295455  0.138889  0.125000      2.000000
  0.340909  0.138889  0.125000      2.000000
  0.386364  0.138889  0.125000      2.000000
  0.431818  0.138889  0.125000      2.000000
  0.477273  0.138889  0.125000      2.000000
 -0.477273  0.138889  0.125000      2.000000
 -0.431818  0.138889  0.125000      2.000000
 -0.386364  0.138889  0.125000      2.000000
 -0.340909  0.138889  0.125000      2.000000
 -0.295455  0.138889  0.125000      2.000000
 -0.250000  0.138889  0.125000      2.000000
 -0.204545  0.138889  0.125000      2.000000
 -0.159091  0.138889  0.125000      2.000000
 -0.113636  0.138889  0.125000      2.000000
 -0.068182  0.138889  0.125000      2.000000
 -0.022727  0.138889  0.125000      2.000000
  0.022727  0.194444  0.125000      2.000000
  0.068182  0.194444  0.125000      2.000000
  0.113636  0.194444  0.125000      2.000000
  0.159091  0.194444  0.125000      2.000000
  0.204545  0.194444  0.125000      2.000000
  0.250000  0.194444  0.125000      2.000000
  0.295455  0.194444  0.125000      2.000000
  0.340909  0.194444  0.125000      2.000000
  0.386364  0.194444  0.125000      2.000000
  0.431818  0.194444  0.125000      2.000000
  0.477273  0.194444  0.125000      2.000000
 -0.477273  0.194444  0.125000      2.000000
 -0.431818  0.194444  0.125000      2.000000
 -0.386364  0.194444  0.125000      2.000000
 -0.340909  0.194444  0.125000      2.000000
 -0.295455  0.194444  0.125000      2.000000
 -0.250000  0.194444  0.125000      2.000000
 -0.204545  0.194444  0.125000      2.000000
 -0.159091  0.194444  0.125000      2.000000
 -0.113636  0.194444  0.125000      2.000000
 -0.068182  0.194444  0.125000      2.000000
 -0.022727  0.194444  0.125000      2.000000
  0.022727  0.250000  0.125000      2.000000
  0.068182  0.250000  0.125000      2.000000
  0.113636  0.250000  0.125000      2.000000
  0.159091  0.250000  0.125000      2.000000
  0.204545  0.250000  0.125000      2.000000
  0.250000  0.250000  0.125000      2.000000
  0.295455  0.250000  0.125000      2.000000
  0.340909  0.250000  0.125000      2.000000
  0.386364  0.250000  0.125000      2.000000
  0.431818  0.250000  0.125000      2.000000
  0.477273  0.250000  0.125000      2.000000
 -0.477273  0.250000  0.125000      2.000000
 -0.431818  0.250000  0.125000      2.000000
 -0.386364  0.250000  0.125000      2.000000
 -0.340909  0.250000  0.125000      2.000000
 -0.295455  0.250000  0.125000      2.000000
 -0.250000  0.250000  0.125000      2.000000
 -0.204545  0.250000  0.125000      2.000000
 -0.159091  0.250000  0.125000      2.000000
 -0.113636  0.250000  0.125000      2.000000
 -0.068182  0.250000  0.125000      2.000000
 -0.022727  0.250000  0.125000      2.000000
  0.022727  0.305556  0.125000      2.000000
  0.068182  0.305556  0.125000      2.000000
  0.113636  0.305556  0.125000      2.000000
  0.159091  0.305556  0.125000      2.000000
  0.204545  0.305556  0.125000      2.000000
  0.250000  0.305556  0.125000      2.000000
  0.295455  0.305556  0.125000      2.000000
  0.340909  0.305556  0.125000      2.000000
  0.386364  0.305556  0.125000      2.000000
  0.431818  0.305556  0.125000      2.000000
  0.477273  0.305556  0.125000      2.000000
 -0.477273  0.305556  0.125000      2.000000
 -0.431818  0.305556  0.125000      2.000000
 -0.386364  0.305556  0.125000      2.000000
 -0.340909  0.305556  0.125000      2.000000
 -0.295455  0.305556  0.125000      2.000000
 -0.250000  0.305556  0.125000      2.000000
 -0.204545  0.305556  0.125000      2.000000
 -0.159091  0.305556  0.125000      2.000000
 -0.113636  0.305556  0.125000      2.000000
 -0.068182  0.305556  0.125000      2.000000
 -0.022727  0.305556  0.125000      2.000000
  0.022727  0.361111  0.125000      2.000000
  0.068182  0.361111  0.125000      2.000000
  0.113636  0.361111  0.125000      2.000000
  0.159091  0.361111  0.125000      2.000000
  0.204545  0.361111  0.125000      2.000000
  0.250000  0.361111  0.125000      2.000000
  0.295455  0.361111  0.125000      2.000000
  0.340909  0.361111  0.125000      2.000000
  0.386364  0.361111  0.125000      2.000000
  0.431818  0.361111  0.125000      2.000000
  0.477273  0.361111  0.125000      2.000000
 -0.477273  0.361111  0.125000      2.000000
 -0.431818  0.361111  0.125000      2.000000
 -0.386364  0.361111  0.125000      2.000000
 -0.340909  0.361111  0.125000      2.000000
 -0.295455  0.361111  0.125000      2.000000
 -0.250000  0.361111  0.125000      2.000000
 -0.204545  0.361111  0.125000      2.000000
 -0.159091  0.361111  0.125000      2.000000
 -0.113636  0.361111  0.125000      2.000000
 -0.068182  0.361111  0.125000      2.000000
 -0.022727  0.361111  0.125000      2.000000
  0.022727  0.416667  0.125000      2.000000
  0.068182  0.416667  0.125000      2.000000
  0.113636  0.416667  0.125000      2.000000
  0.159091  0.416667  0.125000      2.000000
  0.204545  0.416667  0.125000      2.000000
  0.250000  0.416667  0.125000      2.000000
  0.295455  0.416667  0.125000      2.000000
  0.340909  0.416667  0.125000      2.000000
  0.386364  0.416667  0.125000      2.000000
  0.431818  0.416667  0.125000      2.000000
  0.477273  0.416667  0.125000      2.000000
 -0.477273  0.416667  0.125000      2.000000
 -0.431818  0.416667  0.125000      2.000000
 -0.386364  0.416667  0.125000      2.000000
 -0.340909  0.416667  0.125000      2.000000
 -0.295455  0.416667  0.125000      2.000000
 -0.250000  0.416667  0.125000      2.000000
 -0.204545  0.416667  0.125000      2.000000
 -0.159091  0.416667  0.125000      2.000000
 -0.113636  0.416667  0.125000      2.000000
 -0.068182  0.416667  0.125000      2.000000
 -0.022727  0.416667  0.125000      2.000000
  0.022727  0.472222  0.125000      2.000000
  0.068182  0.472222  0.125000      2.000000
  0.113636  0.472222  0.125000      2.000000
  0.159091  0.472222  0.125000      2.000000
  0.204545  0.472222  0.125000      2.000000
  0.250000  0.472222  0.125000      2.000000
  0.295455  0.472222  0.125000      2.000000
  0.340909  0.472222  0.125000      2.000000
  0.386364  0.472222  0.125000      2.000000
  0.431818  0.472222  0.125000      2.000000
  0.477273  0.472222  0.125000      2.000000
 -0.477273  0.472222  0.125000      2.000000
 -0.431818  0.472222  0.125000      2.000000
 -0.386364  0.472222  0.125000      2.000000
 -0.340909  0.472222  0.125000      2.000000
 -0.295455  0.472222  0.125000      2.000000
 -0.250000  0.472222  0.125000      2.000000
 -0.204545  0.472222  0.125000      2.000000
 -0.159091  0.472222  0.125000      2.000000
 -0.113636  0.472222  0.125000      2.000000
 -0.068182  0.472222  0.125000      2.000000
 -0.022727  0.472222  0.125000      2.000000
  0.022727 -0.472222  0.125000      2.000000
  0.068182 -0.472222  0.125000      2.000000
  0.113636 -0.472222  0.125000      2.000000
  0.159091 -0.472222  0.125000      2.000000
  0.204545 -0.472222  0.125000      2.000000
  0.250000 -0.472222  0.125000      2.000000
  0.295455 -0.472222  0.125000      2.000000
  0.340909 -0.472222  0.125000      2.000000
  0.386364 -0.472222  0.125000      2.000000
  0.431818 -0.472222  0.125000      2.000000
  0.477273 -0.472222  0.125000      2.000000
 -0.477273 -0.472222  0.125000      2.000000
 -0.431818 -0.472222  0.125000      2.000000
 -0.386364 -0.472222  0.125000      2.000000
 -0.340909 -0.472222  0.125000      2.000000
 -0.295455 -0.472222  0.125000      2.000000
 -0.250000 -0.472222  0.125000      2.000000
 -0.204545 -0.472222  0.125000      2.000000
 -0.159091 -0.472222  0.125000      2.000000
 -0.113636 -0.472222  0.125000      2.000000
 -0.068182 -0.472222  0.125000      2.000000
 -0.022727 -0.472222  0.125000      2.000000
  0.022727 -0.416667  0.125000      2.000000
  0.068182 -0.416667  0.125000      2.000000
  0.113636 -0.416667  0.125000      2.000000
  0.159091 -0.416667  0.125000      2.000000
  0.204545 -0.416667  0.125000      2.000000
  0.250000 -0.416667  0.125000      2.000000
  0.295455 -0.416667  0.125000      2.000000
  0.340909 -0.416667  0.125000      2.000000
  0.386364 -0.416667  0.125000      2.000000
  0.431818 -0.416667  0.125000      2.000000
  0.477273 -0.416667  0.125000      2.000000
 -0.477273 -0.416667  0.125000      2.000000
 -0.431818 -0.416667  0.125000      2.000000
 -0.386364 -0.416667  0.125000      2.000000
 -0.340909 -0.416667  0.125000      2.000000
 -0.295455 -0.416667  0.125000      2.000000
 -0.250000 -0.416667  0.125000      2.000000
 -0.204545 -0.416667  0.125000      2.000000
 -0.159091 -0.416667  0.125000      2.000000
 -0.113636 -0.416667  0.125000      2.000000
 -0.068182 -0.416667  0.125000      2.000000
 -0.022727 -0.416667  0.125000      2.000000
  0.022727 -0.361111  0.125000      2.000000
  0.068182 -0.361111  0.125000      2.000000
  0.113636 -0.361111  0.125000      2.000000
  0.159091 -0.361111  0.125000      2.000000
  0.204545 -0.361111  0.125000      2.000000
  0.250000 -0.361111  0.125000      2.000000
  0.295455 -0.361111  0.125000      2.000000
  0.340909 -0.361111  0.125000      2.000000
  0.386364 -0.361111  0.125000      2.000000
  0.431818 -0.361111  0.125000      2.000000
  0.477273 -0.361111  0.125000      2.000000
 -0.477273 -0.361111  0.125000      2.000000
 -0.431818 -0.361111  0.125000      2.000000
 -0.386364 -0.361111  0.125000      2.000000
 -0.340909 -0.361111  0.125000      2.000000
 -0.295455 -0.361111  0.125000      2.000000
 -0.250000 -0.361111  0.125000      2.000000
 -0.204545 -0.361111  0.125000      2.000000
 -0.159091 -0.361111  0.125000      2.000000
 -0.113636 -0.361111  0.125000      2.000000
 -0.068182 -0.361111  0.125000      2.000000
 -0.022727 -0.361111  0.125000      2.000000
  0.022727 -0.305556  0.125000      2.000000
  0.068182 -0.305556  0.125000      2.000000
  0.113636 -0.305556  0.125000      2.000000
  0.159091 -0.305556  0.125000      2.000000
  0.204545 -0.305556  0.125000      2.000000
  0.250000 -0.305556  0.125000      2.000000
  0.295455 -0.305556  0.125000      2.000000
  0.340909 -0.305556  0.125000      2.000000
  0.386364 -0.305556  0.125000      2.000000
  0.431818 -0.305556  0.125000      2.000000
  0.477273 -0.305556  0.125000      2.000000
 -0.477273 -0.305556  0.125000      2.000000
 -0.431818 -0.305556  0.125000      2.000000
 -0.386364 -0.305556  0.125000      2.000000
 -0.340909 -0.305556  0.125000      2.000000
 -0.295455 -0.305556  0.125000      2.000000
 -0.250000 -0.305556  0.125000      2.000000
 -0.204545 -0.305556  0.125000      2.000000
 -0.159091 -0.305556  0.125000      2.000000
 -0.113636 -0.305556  0.125000      2.000000
 -0.068182 -0.305556  0.125000      2.000000
 -0.022727 -0.305556  0.125000      2.000000
  0.022727 -0.250000  0.125000      2.000000
  0.068182 -0.250000  0.125000      2.000000
  0.113636 -0.250000  0.125000      2.000000
  0.159091 -0.250000  0.125000      2.000000
  0.204545 -0.250000  0.125000      2.000000
  0.250000 -0.250000  0.125000      2.000000
  0.295455 -0.250000  0.125000      2.000000
  0.340909 -0.250000  0.125000      2.000000
  0.386364 -0.250000  0.125000      2.000000
  0.431818 -0.250000  0.125000      2.000000
  0.477273 -0.250000  0.125000      2.000000
 -0.477273 -0.250000  0.125000      2.000000
 -0.431818 -0.250000  0.125000      2.000000
 -0.386364 -0.250000  0.125000      2.000000
 -0.340909 -0.250000  0.125000      2.000000
 -0.295455 -0.250000  0.125000      2.000000
 -0.250000 -0.250000  0.125000      2.000000
 -0.204545 -0.250000  0.125000      2.000000
 -0.159091 -0.250000  0.125000      2.000000
 -0.113636 -0.250000  0.125000      2.000000
 -0.068182 -0.250000  0.125000      2.000000
 -0.022727 -0.250000  0.125000      2.000000
  0.022727 -0.194444  0.125000      2.000000
  0.068182 -0.194444  0.125000      2.000000
  0.113636 -0.194444  0.125000      2.000000
  0.159091 -0.194444  0.125000      2.000000
  0.204545 -0.194444  0.125000      2.000000
  0.250000 -0.194444  0.125000      2.000000
  0.295455 -0.194444  0.125000      2.000000
  0.340909 -0.194444  0.125000      2.000000
  0.386364 -0.194444  0.125000      2.000000
  0.431818 -0.194444  0.125000      2.000000
  0.477273 -0.194444  0.125000      2.000000
 -0.477273 -0.194444  0.125000      2.000000
 -0.431818 -0.194444  0.125000      2.000000
 -0.386364 -0.194444  0.125000      2.000000
 -0.340909 -0.194444  0.125000      2.000000
 -0.295455 -0.194444  0.125000      2.000000
 -0.250000 -0.194444  0.125000      2.000000
 -0.204545 -0.194444  0.125000      2.000000
 -0.159091 -0.194444  0.125000      2.000000
 -0.113636 -0.194444  0.125000      2.000000
 -0.068182 -0.194444  0.125000      2.000000
 -0.022727 -0.194444  0.125000      2.000000
  0.022727 -0.138889  0.125000      2.000000
  0.068182 -0.138889  0.125000      2.000000
  0.113636 -0.138889  0.125000      2.000000
  0.159091 -0.138889  0.125000      2.000000
  0.204545 -0.138889  0.125000      2.000000
  0.250000 -0.138889  0.125000      2.000000
  0.295455 -0.138889  0.125000      2.000000
  0.340909 -0.138889  0.125000      2.000000
  0.386364 -0.138889  0.125000      2.000000
  0.431818 -0.138889  0.125000      2.000000
  0.477273 -0.138889  0.125000      2.000000
 -0.477273 -0.138889  0.125000      2.000000
 -0.431818 -0.138889  0.125000      2.000000
 -0.386364 -0.138889  0.125000      2.000000
 -0.340909 -0.138889  0.125000      2.000000
 -0.295455 -0.138889  0.125000      2.000000
 -0.250000 -0.138889  0.125000      2.000000
 -0.204545 -0.138889  0.125000      2.000000
 -0.159091 -0.138889  0.125000      2.000000
 -0.113636 -0.138889  0.125000      2.000000
 -0.068182 -0.138889  0.125000      2.000000
 -0.022727 -0.138889  0.125000      2.000000
  0.022727 -0.083333  0.125000      2.000000
  0.068182 -0.083333  0.125000      2.000000
  0.113636 -0.083333  0.125000      2.000000
  0.159091 -0.083333  0.125000      2.000000
  0.204545 -0.083333  0.125000      2.000000
  0.250000 -0.083333  0.125000      2.000000
  0.295455 -0.083333  0.125000      2.000000
  0.340909 -0.083333  0.125000      2.000000
  0.386364 -0.083333  0.125000      2.000000
  0.431818 -0.083333  0.125000      2.000000
  0.477273 -0.083333  0.125000      2.000000
 -0.477273 -0.083333  0.125000      2.000000
 -0.431818 -0.083333  0.125000      2.000000
 -0.386364 -0.083333  0.125000      2.000000
 -0.340909 -0.083333  0.125000      2.000000
 -0.295455 -0.083333  0.125000      2.000000
 -0.250000 -0.083333  0.125000      2.000000
 -0.204545 -0.083333  0.125000      2.000000
 -0.159091 -0.083333  0.125000      2.000000
 -0.113636 -0.083333  0.125000      2.000000
 -0.068182 -0.083333  0.125000      2.000000
 -0.022727 -0.083333  0.125000      2.000000
  0.022727 -0.027778  0.125000      2.000000
  0.068182 -0.027778  0.125000      2.000000
  0.113636 -0.027778  0.125000      2.000000
  0.159091 -0.027778  0.125000      2.000000
  0.204545 -0.027778  0.125000      2.000000
  0.250000 -0.027778  0.125000      2.000000
  0.295455 -0.027778  0.125000      2.000000
  0.340909 -0.027778  0.125000      2.000000
  0.386364 -0.027778  0.125000      2.000000
  0.431818 -0.027778  0.125000      2.000000
  0.477273 -0.027778  0.125000      2.000000
 -0.477273 -0.027778  0.125000      2.000000
 -0.431818 -0.027778  0.125000      2.000000
 -0.386364 -0.027778  0.125000      2.000000
 -0.340909 -0.027778  0.125000      2.000000
 -0.295455 -0.027778  0.125000      2.000000
 -0.250000 -0.027778  0.125000      2.000000
 -0.204545 -0.027778  0.125000      2.000000
 -0.159091 -0.027778  0.125000      2.000000
 -0.113636 -0.027778  0.125000      2.000000
 -0.068182 -0.027778  0.125000      2.000000
 -0.022727 -0.027778  0.125000      2.000000
  0.022727  0.027778  0.375000      2.000000
  0.068182  0.027778  0.375000      2.000000
  0.113636  0.027778  0.375000      2.000000
  0.159091  0.027778  0.375000      2.000000
  0.204545  0.027778  0.375000      2.000000
  0.250000  0.027778  0.375000      2.000000
  0.295455  0.027778  0.375000      2.000000
  0.340909  0.027778  0.375000      2.000000
  0.386364  0.027778  0.375000      2.000000
  0.431818  0.027778  0.375000      2.000000
  0.477273  0.027778  0.375000      2.000000
 -0.477273  0.027778  0.375000      2.000000
 -0.431818  0.027778  0.375000      2.000000
 -0.386364  0.027778  0.375000      2.000000
 -0.340909  0.027778  0.375000      2.000000
 -0.295455  0.027778  0.375000      2.000000
 -0.250000  0.027778  0.375000      2.000000
 -0.204545  0.027778  0.375000      2.000000
 -0.159091  0.027778  0.375000      2.000000
 -0.113636  0.027778  0.375000      2.000000
 -0.068182  0.027778  0.375000      2.000000
 -0.022727  0.027778  0.375000      2.000000
  0.022727  0.083333  0.375000      2.000000
  0.068182  0.083333  0.375000      2.000000
  0.113636  0.083333  0.375000      2.000000
  0.159091  0.083333  0.375000      2.000000
  0.204545  0.083333  0.375000      2.000000
  0.250000  0.083333  0.375000      2.000000
  0.295455  0.083333  0.375000      2.000000
  0.340909  0.083333  0.375000      2.000000
  0.386364  0.083333  0.375000      2.000000
  0.431818  0.083333  0.375000      2.000000
  0.477273  0.083333  0.375000      2.000000
 -0.477273  0.083333  0.375000      2.000000
 -0.431818  0.083333  0.375000      2.000000
 -0.386364  0.083333  0.375000      2.000000
 -0.340909  0.083333  0.375000      2.000000
 -0.295455  0.083333  0.375000      2.000000
 -0.250000  0.083333  0.375000      2.000000
 -0.204545  0.083333  0.375000      2.000000
 -0.159091  0.083333  0.375000      2.000000
 -0.113636  0.083333  0.375000      2.000000
 -0.068182  0.083333  0.375000      2.000000
 -0.022727  0.083333  0.375000      2.000000
  0.022727  0.138889  0.375000      2.000000
  0.068182  0.138889  0.375000      2.000000
  0.113636  0.138889  0.375000      2.000000
  0.159091  0.138889  0.375000      2.000000
  0.204545  0.138889  0.375000      2.000000
  0.250000  0.138889  0.375000      2.000000
  0.295455  0.138889  0.375000      2.000000
  0.340909  0.138889  0.375000      2.000000
  0.386364  0.138889  0.375000      2.000000
  0.431818  0.138889  0.375000      2.000000
  0.477273  0.138889  0.375000      2.000000
 -0.477273  0.138889  0.375000      2.000000
 -0.431818  0.138889  0.375000      2.000000
 -0.386364  0.138889  0.375000      2.000000
 -0.340909  0.138889  0.375000      2.000000
 -0.295455  0.138889  0.375000      2.000000
 -0.250000  0.138889  0.375000      2.000000
 -0.204545  0.138889  0.375000      2.000000
 -0.159091  0.138889  0.375000      2.000000
 -0.113636  0.138889  0.375000      2.000000
 -0.068182  0.138889  0.375000      2.000000
 -0.022727  0.138889  0.375000      2.000000
  0.022727  0.194444  0.375000      2.000000
  0.068182  0.194444  0.375000      2.000000
  0.113636  0.194444  0.375000      2.000000
  0.159091  0.194444  0.375000      2.000000
  0.204545  0.194444  0.375000      2.000000
  0.250000  0.194444  0.375000      2.000000
  0.295455  0.194444  0.375000      2.000000
  0.340909  0.194444  0.375000      2.000000
  0.386364  0.194444  0.375000      2.000000
  0.431818  0.194444  0.375000      2.000000
  0.477273  0.194444  0.375000      2.000000
 -0.477273  0.194444  0.375000      2.000000
 -0.431818  0.194444  0.375000      2.000000
 -0.386364  0.194444  0.375000      2.000000
 -0.340909  0.194444  0.375000      2.000000
 -0.295455  0.194444  0.375000      2.000000
 -0.250000  0.194444  0.375000      2.000000
 -0.204545  0.194444  0.375000      2.000000
 -0.159091  0.194444  0.375000      2.000000
 -0.113636  0.194444  0.375000      2.000000
 -0.068182  0.194444  0.375000      2.000000
 -0.022727  0.194444  0.375000      2.000000
  0.022727  0.250000  0.375000      2.000000
  0.068182  0.250000  0.375000      2.000000
  0.113636  0.250000  0.375000      2.000000
  0.159091  0.250000  0.375000      2.000000
  0.204545  0.250000  0.375000      2.000000
  0.250000  0.250000  0.375000      2.000000
  0.295455  0.250000  0.375000      2.000000
  0.340909  0.250000  0.375000      2.000000
  0.386364  0.250000  0.375000      2.000000
  0.431818  0.250000  0.375000      2.000000
  0.477273  0.250000  0.375000      2.000000
 -0.477273  0.250000  0.375000      2.000000
 -0.431818  0.250000  0.375000      2.000000
 -0.386364  0.250000  0.375000      2.000000
 -0.340909  0.250000  0.375000      2.000000
 -0.295455  0.250000  0.375000      2.000000
 -0.250000  0.250000  0.375000      2.000000
 -0.204545  0.250000  0.375000      2.000000
 -0.159091  0.250000  0.375000      2.000000
 -0.113636  0.250000  0.375000      2.000000
 -0.068182  0.250000  0.375000      2.000000
 -0.022727  0.250000  0.375000      2.000000
  0.022727  0.305556  0.375000      2.000000
  0.068182  0.305556  0.375000      2.000000
  0.113636  0.305556  0.375000      2.000000
  0.159091  0.305556  0.375000      2.000000
  0.204545  0.305556  0.375000      2.000000
  0.250000  0.305556  0.375000      2.000000
  0.295455  0.305556  0.375000      2.000000
  0.340909  0.305556  0.375000      2.000000
  0.386364  0.305556  0.375000      2.000000
  0.431818  0.305556  0.375000      2.000000
  0.477273  0.305556  0.375000      2.000000
 -0.477273  0.305556  0.375000      2.000000
 -0.431818  0.305556  0.375000      2.000000
 -0.386364  0.305556  0.375000      2.000000
 -0.340909  0.305556  0.375000      2.000000
 -0.295455  0.305556  0.375000      2.000000
 -0.250000  0.305556  0.375000      2.000000
 -0.204545  0.305556  0.375000      2.000000
 -0.159091  0.305556  0.375000      2.000000
 -0.113636  0.305556  0.375000      2.000000
 -0.068182  0.305556  0.375000      2.000000
 -0.022727  0.305556  0.375000      2.000000
  0.022727  0.361111  0.375000      2.000000
  0.068182  0.361111  0.375000      2.000000
  0.113636  0.361111  0.375000      2.000000
  0.159091  0.361111  0.375000      2.000000
  0.204545  0.361111  0.375000      2.000000
  0.250000  0.361111  0.375000      2.000000
  0.295455  0.361111  0.375000      2.000000
  0.340909  0.361111  0.375000      2.000000
  0.386364  0.361111  0.375000      2.000000
  0.431818  0.361111  0.375000      2.000000
  0.477273  0.361111  0.375000      2.000000
 -0.477273  0.361111  0.375000      2.000000
 -0.431818  0.361111  0.375000      2.000000
 -0.386364  0.361111  0.375000      2.000000
 -0.340909  0.361111  0.375000      2.000000
 -0.295455  0.361111  0.375000      2.000000
 -0.250000  0.361111  0.375000      2.000000
 -0.204545  0.361111  0.375000      2.000000
 -0.159091  0.361111  0.375000      2.000000
 -0.113636  0.361111  0.375000      2.000000
 -0.068182  0.361111  0.375000      2.000000
 -0.022727  0.361111  0.375000      2.000000
  0.022727  0.416667  0.375000      2.000000
  0.068182  0.416667  0.375000      2.000000
  0.113636  0.416667  0.375000      2.000000
  0.159091  0.416667  0.375000      2.000000
  0.204545  0.416667  0.375000      2.000000
  0.250000  0.416667  0.375000      2.000000
  0.295455  0.416667  0.375000      2.000000
  0.340909  0.416667  0.375000      2.000000
  0.386364  0.416667  0.375000      2.000000
  0.431818  0.416667  0.375000      2.000000
  0.477273  0.416667  0.375000      2.000000
 -0.477273  0.416667  0.375000      2.000000
 -0.431818  0.416667  0.375000      2.000000
 -0.386364  0.416667  0.375000      2.000000
 -0.340909  0.416667  0.375000      2.000000
 -0.295455  0.416667  0.375000      2.000000
 -0.250000  0.416667  0.375000      2.000000
 -0.204545  0.416667  0.375000      2.000000
 -0.159091  0.416667  0.375000      2.000000
 -0.113636  0.416667  0.375000      2.000000
 -0.068182  0.416667  0.375000      2.000000
 -0.022727  0.416667  0.375000      2.000000
  0.022727  0.472222  0.375000      2.000000
  0.068182  0.472222  0.375000      2.000000
  0.113636  0.472222  0.375000      2.000000
  0.159091  0.472222  0.375000      2.000000
  0.204545  0.472222  0.375000      2.000000
  0.250000  0.472222  0.375000      2.000000
  0.295455  0.472222  0.375000      2.000000
  0.340909  0.472222  0.375000      2.000000
  0.386364  0.472222  0.375000      2.000000
  0.431818  0.472222  0.375000      2.000000
  0.477273  0.472222  0.375000      2.000000
 -0.477273  0.472222  0.375000      2.000000
 -0.431818  0.472222  0.375000      2.000000
 -0.386364  0.472222  0.375000      2.000000
 -0.340909  0.472222  0.375000      2.000000
 -0.295455  0.472222  0.375000      2.000000
 -0.250000  0.472222  0.375000      2.000000
 -0.204545  0.472222  0.375000      2.000000
 -0.159091  0.472222  0.375000      2.000000
 -0.113636  0.472222  0.375000      2.000000
 -0.068182  0.472222  0.375000      2.000000
 -0.022727  0.472222  0.375000      2.000000
  0.022727 -0.472222  0.375000      2.000000
  0.068182 -0.472222  0.375000      2.000000
  0.113636 -0.472222  0.375000      2.000000
  0.159091 -0.472222  0.375000      2.000000
  0.204545 -0.472222  0.375000      2.000000
  0.250000 -0.472222  0.375000      2.000000
  0.295455 -0.472222  0.375000      2.000000
  0.340909 -0.472222  0.375000      2.000000
  0.386364 -0.472222  0.375000      2.000000
  0.431818 -0.472222  0.375000      2.000000
  0.477273 -0.472222  0.375000      2.000000
 -0.477273 -0.472222  0.375000      2.000000
 -0.431818 -0.472222  0.375000      2.000000
 -0.386364 -0.472222  0.375000      2.000000
 -0.340909 -0.472222  0.375000      2.000000
 -0.295455 -0.472222  0.375000      2.000000
 -0.250000 -0.472222  0.375000      2.000000
 -0.204545 -0.472222  0.375000      2.000000
 -0.159091 -0.472222  0.375000      2.000000
 -0.113636 -0.472222  0.375000      2.000000
 -0.068182 -0.472222  0.375000      2.000000
 -0.022727 -0.472222  0.375000      2.000000
  0.022727 -0.416667  0.375000      2.000000
  0.068182 -0.416667  0.375000      2.000000
  0.113636 -0.416667  0.375000      2.000000
  0.159091 -0.416667  0.375000      2.000000
  0.204545 -0.416667  0.375000      2.000000
  0.250000 -0.416667  0.375000      2.000000
  0.295455 -0.416667  0.375000      2.000000
  0.340909 -0.416667  0.375000      2.000000
  0.386364 -0.416667  0.375000      2.000000
  0.431818 -0.416667  0.375000      2.000000
  0.477273 -0.416667  0.375000      2.000000
 -0.477273 -0.416667  0.375000      2.000000
 -0.431818 -0.416667  0.375000      2.000000
 -0.386364 -0.416667  0.375000      2.000000
 -0.340909 -0.416667  0.375000      2.000000
 -0.295455 -0.416667  0.375000      2.000000
 -0.250000 -0.416667  0.375000      2.000000
 -0.204545 -0.416667  0.375000      2.000000
 -0.159091 -0.416667  0.375000      2.000000
 -0.113636 -0.416667  0.375000      2.000000
 -0.068182 -0.416667  0.375000      2.000000
 -0.022727 -0.416667  0.375000      2.000000
  0.022727 -0.361111  0.375000      2.000000
  0.068182 -0.361111  0.375000      2.000000
  0.113636 -0.361111  0.375000      2.000000
  0.159091 -0.361111  0.375000      2.000000
  0.204545 -0.361111  0.375000      2.000000
  0.250000 -0.361111  0.375000      2.000000
  0.295455 -0.361111  0.375000      2.000000
  0.340909 -0.361111  0.375000      2.000000
  0.386364 -0.361111  0.375000      2.000000
  0.431818 -0.361111  0.375000      2.000000
  0.477273 -0.361111  0.375000      2.000000
 -0.477273 -0.361111  0.375000      2.000000
 -0.431818 -0.361111  0.375000      2.000000
 -0.386364 -0.361111  0.375000      2.000000
 -0.340909 -0.361111  0.375000      2.000000
 -0.295455 -0.361111  0.375000      2.000000
 -0.250000 -0.361111  0.375000      2.000000
 -0.204545 -0.361111  0.375000      2.000000
 -0.159091 -0.361111  0.375000      2.000000
 -0.113636 -0.361111  0.375000      2.000000
 -0.068182 -0.361111  0.375000      2.000000
 -0.022727 -0.361111  0.375000      2.000000
  0.022727 -0.305556  0.375000      2.000000
  0.068182 -0.305556  0.375000      2.000000
  0.113636 -0.305556  0.375000      2.000000
  0.159091 -0.305556  0.375000      2.000000
  0.204545 -0.305556  0.375000      2.000000
  0.250000 -0.305556  0.375000      2.000000
  0.295455 -0.305556  0.375000      2.000000
  0.340909 -0.305556  0.375000      2.000000
  0.386364 -0.305556  0.375000      2.000000
  0.431818 -0.305556  0.375000      2.000000
  0.477273 -0.305556  0.375000      2.000000
 -0.477273 -0.305556  0.375000      2.000000
 -0.431818 -0.305556  0.375000      2.000000
 -0.386364 -0.305556  0.375000      2.000000
 -0.340909 -0.305556  0.375000      2.000000
 -0.295455 -0.305556  0.375000      2.000000
 -0.250000 -0.305556  0.375000      2.000000
 -0.204545 -0.305556  0.375000      2.000000
 -0.159091 -0.305556  0.375000      2.000000
 -0.113636 -0.305556  0.375000      2.000000
 -0.068182 -0.305556  0.375000      2.000000
 -0.022727 -0.305556  0.375000      2.000000
  0.022727 -0.250000  0.375000      2.000000
  0.068182 -0.250000  0.375000      2.000000
  0.113636 -0.250000  0.375000      2.000000
  0.159091 -0.250000  0.375000      2.000000
  0.204545 -0.250000  0.375000      2.000000
  0.250000 -0.250000  0.375000      2.000000
  0.295455 -0.250000  0.375000      2.000000
  0.340909 -0.250000  0.375000      2.000000
  0.386364 -0.250000  0.375000      2.000000
  0.431818 -0.250000  0.375000      2.000000
  0.477273 -0.250000  0.375000      2.000000
 -0.477273 -0.250000  0.375000      2.000000
 -0.431818 -0.250000  0.375000      2.000000
 -0.386364 -0.250000  0.375000      2.000000
 -0.340909 -0.250000  0.375000      2.000000
 -0.295455 -0.250000  0.375000      2.000000
 -0.250000 -0.250000  0.375000      2.000000
 -0.204545 -0.250000  0.375000      2.000000
 -0.159091 -0.250000  0.375000      2.000000
 -0.113636 -0.250000  0.375000      2.000000
 -0.068182 -0.250000  0.375000      2.000000
 -0.022727 -0.250000  0.375000      2.000000
  0.022727 -0.194444  0.375000      2.000000
  0.068182 -0.194444  0.375000      2.000000
  0.113636 -0.194444  0.375000      2.000000
  0.159091 -0.194444  0.375000      2.000000
  0.204545 -0.194444  0.375000      2.000000
  0.250000 -0.194444  0.375000      2.000000
  0.295455 -0.194444  0.375000      2.000000
  0.340909 -0.194444  0.375000      2.000000
  0.386364 -0.194444  0.375000      2.000000
  0.431818 -0.194444  0.375000      2.000000
  0.477273 -0.194444  0.375000      2.000000
 -0.477273 -0.194444  0.375000      2.000000
 -0.431818 -0.194444  0.375000      2.000000
 -0.386364 -0.194444  0.375000      2.000000
 -0.340909 -0.194444  0.375000      2.000000
 -0.295455 -0.194444  0.375000      2.000000
 -0.250000 -0.194444  0.375000      2.000000
 -0.204545 -0.194444  0.375000      2.000000
 -0.159091 -0.194444  0.375000      2.000000
 -0.113636 -0.194444  0.375000      2.000000
 -0.068182 -0.194444  0.375000      2.000000
 -0.022727 -0.194444  0.375000      2.000000
  0.022727 -0.138889  0.375000      2.000000
  0.068182 -0.138889  0.375000      2.000000
  0.113636 -0.138889  0.375000      2.000000
  0.159091 -0.138889  0.375000      2.000000
  0.204545 -0.138889  0.375000      2.000000
  0.250000 -0.138889  0.375000      2.000000
  0.295455 -0.138889  0.375000      2.000000
  0.340909 -0.138889  0.375000      2.000000
  0.386364 -0.138889  0.375000      2.000000
  0.431818 -0.138889  0.375000      2.000000
  0.477273 -0.138889  0.375000      2.000000
 -0.477273 -0.138889  0.375000      2.000000
 -0.431818 -0.138889  0.375000      2.000000
 -0.386364 -0.138889  0.375000      2.000000
 -0.340909 -0.138889  0.375000      2.000000
 -0.295455 -0.138889  0.375000      2.000000
 -0.250000 -0.138889  0.375000      2.000000
 -0.204545 -0.138889  0.375000      2.000000
 -0.159091 -0.138889  0.375000      2.000000
 -0.113636 -0.138889  0.375000      2.000000
 -0.068182 -0.138889  0.375000      2.000000
 -0.022727 -0.138889  0.375000      2.000000
  0.022727 -0.083333  0.375000      2.000000
  0.068182 -0.083333  0.375000      2.000000
  0.113636 -0.083333  0.375000      2.000000
  0.159091 -0.083333  0.375000      2.000000
  0.204545 -0.083333  0.375000      2.000000
  0.250000 -0.083333  0.375000      2.000000
  0.295455 -0.083333  0.375000      2.000000
  0.340909 -0.083333  0.375000      2.000000
  0.386364 -0.083333  0.375000      2.000000
  0.431818 -0.083333  0.375000      2.000000
  0.477273 -0.083333  0.375000      2.000000
 -0.477273 -0.083333  0.375000      2.000000
 -0.431818 -0.083333  0.375000      2.000000
 -0.386364 -0.083333  0.375000      2.000000
 -0.340909 -0.083333  0.375000      2.000000
 -0.295455 -0.083333  0.375000      2.000000
 -0.250000 -0.083333  0.375000      2.000000
 -0.204545 -0.083333  0.375000      2.000000
 -0.159091 -0.083333  0.375000      2.000000
 -0.113636 -0.083333  0.375000      2.000000
 -0.068182 -0.083333  0.375000      2.000000
 -0.022727 -0.083333  0.375000      2.000000
  0.022727 -0.027778  0.375000      2.000000
  0.068182 -0.027778  0.375000      2.000000
  0.113636 -0.027778  0.375000      2.000000
  0.159091 -0.027778  0.375000      2.000000
  0.204545 -0.027778  0.375000      2.000000
  0.250000 -0.027778  0.375000      2.000000
  0.295455 -0.027778  0.375000      2.000000
  0.340909 -0.027778  0.375000      2.000000
  0.386364 -0.027778  0.375000      2.000000
  0.431818 -0.027778  0.375000      2.000000
  0.477273 -0.027778  0.375000      2.000000
 -0.477273 -0.027778  0.375000      2.000000
 -0.431818 -0.027778  0.375000      2.000000
 -0.386364 -0.027778  0.375000      2.000000
 -0.340909 -0.027778  0.375000      2.000000
 -0.295455 -0.027778  0.375000      2.000000
 -0.250000 -0.027778  0.375000      2.000000
 -0.204545 -0.027778  0.375000      2.000000
 -0.159091 -0.027778  0.375000      2.000000
 -0.113636 -0.027778  0.375000      2.000000
 -0.068182 -0.027778  0.375000      2.000000
 -0.022727 -0.027778  0.375000      2.000000
 
 Following cartesian coordinates:
            Coordinates               Weight
  0.005252  0.003477  0.004922      2.000000
  0.016542 -0.001527  0.004918      2.000000
  0.027833 -0.006531  0.004913      2.000000
  0.039123 -0.011535  0.004909      2.000000
  0.050413 -0.016539  0.004904      2.000000
  0.061703 -0.021543  0.004900      2.000000
  0.072994 -0.026547  0.004896      2.000000
  0.084284 -0.031551  0.004891      2.000000
  0.095574 -0.036555  0.004887      2.000000
  0.106864 -0.041559  0.004882      2.000000
  0.118155 -0.046563  0.004878      2.000000
 -0.118941  0.058521  0.004971      2.000000
 -0.107650  0.053517  0.004967      2.000000
 -0.096360  0.048513  0.004962      2.000000
 -0.085070  0.043509  0.004958      2.000000
 -0.073780  0.038505  0.004953      2.000000
 -0.062489  0.033501  0.004949      2.000000
 -0.051199  0.028497  0.004944      2.000000
 -0.039909  0.023493  0.004940      2.000000
 -0.028619  0.018489  0.004936      2.000000
 -0.017328  0.013485  0.004931      2.000000
 -0.006038  0.008481  0.004927      2.000000
  0.005252  0.015788  0.004922      2.000000
  0.016542  0.010784  0.004918      2.000000
  0.027833  0.005780  0.004913      2.000000
  0.039123  0.000776  0.004909      2.000000
  0.050413 -0.004228  0.004904      2.000000
  0.061703 -0.009232  0.004900      2.000000
  0.072994 -0.014236  0.004896      2.000000
  0.084284 -0.019240  0.004891      2.000000
  0.095574 -0.024244  0.004887      2.000000
  0.106864 -0.029248  0.004882      2.000000
  0.118155 -0.034252  0.004878      2.000000
 -0.118941  0.070831  0.004971      2.000000
 -0.107650  0.065827  0.004967      2.000000
 -0.096360  0.060823  0.004962      2.000000
 -0.085070  0.055819  0.004958      2.000000
 -0.073780  0.050815  0.004953      2.000000
 -0.062489  0.045811  0.004949      2.000000
 -0.051199  0.040807  0.004944      2.000000
 -0.039909  0.035803  0.004940      2.000000
 -0.028619  0.030800  0.004936      2.000000
 -0.017328  0.025796  0.004931      2.000000
 -0.006038  0.020792  0.004927      2.000000
  0.005252  0.028098  0.004922      2.000000
  0.016542  0.023094  0.004918      2.000000
  0.027833  0.018090  0.004913      2.000000
  0.039123  0.013086  0.004909      2.000000
  0.050413  0.008083  0.004904      2.000000
  0.061703  0.003079  0.004900      2.000000
  0.072994 -0.001925  0.004896      2.000000
  0.084284 -0.006929  0.004891      2.000000
  0.095574 -0.011933  0.004887      2.000000
  0.106864 -0.016937  0.004882      2.000000
  0.118155 -0.021941  0.004878      2.000000
 -0.118941  0.083142  0.004971      2.000000
 -0.107650  0.078138  0.004967      2.000000
 -0.096360  0.073134  0.004962      2.000000
 -0.085070  0.068130  0.004958      2.000000
 -0.073780  0.063126  0.004953      2.000000
 -0.062489  0.058122  0.004949      2.000000
 -0.051199  0.053118  0.004944      2.000000
 -0.039909  0.048114  0.004940      2.000000
 -0.028619  0.043110  0.004936      2.000000
 -0.017328  0.038106  0.004931      2.000000
 -0.006038  0.033102  0.004927      2.000000
  0.005252  0.040409  0.004922      2.000000
  0.016542  0.035405  0.004918      2.000000
  0.027833  0.030401  0.004913      2.000000
  0.039123  0.025397  0.004909      2.000000
  0.050413  0.020393  0.004904      2.000000
  0.061703  0.015389  0.004900      2.000000
  0.072994  0.010385  0.004896      2.000000
  0.084284  0.005381  0.004891      2.000000
  0.095574  0.000377  0.004887      2.000000
  0.106864 -0.004627  0.004882      2.000000
  0.118155 -0.009631  0.004878      2.000000
 -0.118941  0.095453  0.004971      2.000000
 -0.107650  0.090449  0.004967      2.000000
 -0.096360  0.085445  0.004962      2.000000
 -0.085070  0.080441  0.004958      2.000000
 -0.073780  0.075437  0.004953      2.000000
 -0.062489  0.070433  0.004949      2.000000
 -0.051199  0.065429  0.004944      2.000000
 -0.039909  0.060425  0.004940      2.000000
 -0.028619  0.055421  0.004936      2.000000
 -0.017328  0.050417  0.004931      2.000000
 -0.006038  0.045413  0.004927      2.000000
  0.005252  0.052720  0.004922      2.000000
  0.016542  0.047716  0.004918      2.000000
  0.027833  0.042712  0.004913      2.000000
  0.039123  0.037708  0.004909      2.000000
  0.050413  0.032704  0.004904      2.000000
  0.061703  0.027700  0.004900      2.000000
  0.072994  0.022696  0.004896      2.000000
  0.084284  0.017692  0.004891      2.000000
  0.095574  0.012688  0.004887      2.000000
  0.106864  0.007684  0.004882      2.000000
  0.118155  0.002680  0.004878      2.000000
 -0.118941  0.107763  0.004971      2.000000
 -0.107650  0.102759  0.004967      2.000000
 -0.096360  0.097755  0.004962      2.000000
 -0.085070  0.092751  0.004958      2.000000
 -0.073780  0.087747  0.004953      2.000000
 -0.062489  0.082744  0.004949      2.000000
 -0.051199  0.077740  0.004944      2.000000
 -0.039909  0.072736  0.004940      2.000000
 -0.028619  0.067732  0.004936      2.000000
 -0.017328  0.062728  0.004931      2.000000
 -0.006038  0.057724  0.004927      2.000000
  0.005252  0.065030  0.004922      2.000000
  0.016542  0.060027  0.004918      2.000000
  0.027833  0.055023  0.004913      2.000000
  0.039123  0.050019  0.004909      2.000000
  0.050413  0.045015  0.004904      2.000000
  0.061703  0.040011  0.004900      2.000000
  0.072994  0.035007  0.004896      2.000000
  0.084284  0.030003  0.004891      2.000000
  0.095574  0.024999  0.004887      2.000000
  0.106864  0.019995  0.004882      2.000000
  0.118155  0.014991  0.004878      2.000000
 -0.118941  0.120074  0.004971      2.000000
 -0.107650  0.115070  0.004967      2.000000
 -0.096360  0.110066  0.004962      2.000000
 -0.085070  0.105062  0.004958      2.000000
 -0.073780  0.100058  0.004953      2.000000
 -0.062489  0.095054  0.004949      2.000000
 -0.051199  0.090050  0.004944      2.000000
 -0.039909  0.085046  0.004940      2.000000
 -0.028619  0.080042  0.004936      2.000000
 -0.017328  0.075038  0.004931      2.000000
 -0.006038  0.070034  0.004927      2.000000
  0.005252  0.077341  0.004922      2.000000
  0.016542  0.072337  0.004918      2.000000
  0.027833  0.067333  0.004913      2.000000
  0.039123  0.062329  0.004909      2.000000
  0.050413  0.057325  0.004904      2.000000
  0.061703  0.052321  0.004900      2.000000
  0.072994  0.047317  0.004896      2.000000
  0.084284  0.042313  0.004891      2.000000
  0.095574  0.037309  0.004887      2.000000
  0.106864  0.032306  0.004882      2.000000
  0.118155  0.027302  0.004878      2.000000
 -0.118941  0.132385  0.004971      2.000000
 -0.107650  0.127381  0.004967      2.000000
 -0.096360  0.122377  0.004962      2.000000
 -0.085070  0.117373  0.004958      2.000000
 -0.073780  0.112369  0.004953      2.000000
 -0.062489  0.107365  0.004949      2.000000
 -0.051199  0.102361  0.004944      2.000000
 -0.039909  0.097357  0.004940      2.000000
 -0.028619  0.092353  0.004936      2.000000
 -0.017328  0.087349  0.004931      2.000000
 -0.006038  0.082345  0.004927      2.000000
  0.005252  0.089652  0.004922      2.000000
  0.016542  0.084648  0.004918      2.000000
  0.027833  0.079644  0.004913      2.000000
  0.039123  0.074640  0.004909      2.000000
  0.050413  0.069636  0.004904      2.000000
  0.061703  0.064632  0.004900      2.000000
  0.072994  0.059628  0.004896      2.000000
  0.084284  0.054624  0.004891      2.000000
  0.095574  0.049620  0.004887      2.000000
  0.106864  0.044616  0.004882      2.000000
  0.118155  0.039612  0.004878      2.000000
 -0.118941  0.144695  0.004971      2.000000
 -0.107650  0.139692  0.004967      2.000000
 -0.096360  0.134688  0.004962      2.000000
 -0.085070  0.129684  0.004958      2.000000
 -0.073780  0.124680  0.004953      2.000000
 -0.062489  0.119676  0.004949      2.000000
 -0.051199  0.114672  0.004944      2.000000
 -0.039909  0.109668  0.004940      2.000000
 -0.028619  0.104664  0.004936      2.000000
 -0.017328  0.099660  0.004931      2.000000
 -0.006038  0.094656  0.004927      2.000000
  0.005252  0.101963  0.004922      2.000000
  0.016542  0.096959  0.004918      2.000000
  0.027833  0.091955  0.004913      2.000000
  0.039123  0.086951  0.004909      2.000000
  0.050413  0.081947  0.004904      2.000000
  0.061703  0.076943  0.004900      2.000000
  0.072994  0.071939  0.004896      2.000000
  0.084284  0.066935  0.004891      2.000000
  0.095574  0.061931  0.004887      2.000000
  0.106864  0.056927  0.004882      2.000000
  0.118155  0.051923  0.004878      2.000000
 -0.118941  0.157006  0.004971      2.000000
 -0.107650  0.152002  0.004967      2.000000
 -0.096360  0.146998  0.004962      2.000000
 -0.085070  0.141994  0.004958      2.000000
 -0.073780  0.136990  0.004953      2.000000
 -0.062489  0.131986  0.004949      2.000000
 -0.051199  0.126982  0.004944      2.000000
 -0.039909  0.121978  0.004940      2.000000
 -0.028619  0.116974  0.004936      2.000000
 -0.017328  0.111971  0.004931      2.000000
 -0.006038  0.106967  0.004927      2.000000
  0.005252 -0.107319  0.004922      2.000000
  0.016542 -0.112323  0.004918      2.000000
  0.027833 -0.117327  0.004913      2.000000
  0.039123 -0.122331  0.004909      2.000000
  0.050413 -0.127335  0.004904      2.000000
  0.061703 -0.132339  0.004900      2.000000
  0.072994 -0.137343  0.004896      2.000000
  0.084284 -0.142347  0.004891      2.000000
  0.095574 -0.147351  0.004887      2.000000
  0.106864 -0.152355  0.004882      2.000000
  0.118155 -0.157359  0.004878      2.000000
 -0.118941 -0.052276  0.004971      2.000000
 -0.107650 -0.057280  0.004967      2.000000
 -0.096360 -0.062284  0.004962      2.000000
 -0.085070 -0.067288  0.004958      2.000000
 -0.073780 -0.072292  0.004953      2.000000
 -0.062489 -0.077296  0.004949      2.000000
 -0.051199 -0.082300  0.004944      2.000000
 -0.039909 -0.087304  0.004940      2.000000
 -0.028619 -0.092308  0.004936      2.000000
 -0.017328 -0.097311  0.004931      2.000000
 -0.006038 -0.102315  0.004927      2.000000
  0.005252 -0.095009  0.004922      2.000000
  0.016542 -0.100013  0.004918      2.000000
  0.027833 -0.105017  0.004913      2.000000
  0.039123 -0.110021  0.004909      2.000000
  0.050413 -0.115025  0.004904      2.000000
  0.061703 -0.120029  0.004900      2.000000
  0.072994 -0.125032  0.004896      2.000000
  0.084284 -0.130036  0.004891      2.000000
  0.095574 -0.135040  0.004887      2.000000
  0.106864 -0.140044  0.004882      2.000000
  0.118155 -0.145048  0.004878      2.000000
 -0.118941 -0.039965  0.004971      2.000000
 -0.107650 -0.044969  0.004967      2.000000
 -0.096360 -0.049973  0.004962      2.000000
 -0.085070 -0.054977  0.004958      2.000000
 -0.073780 -0.059981  0.004953      2.000000
 -0.062489 -0.064985  0.004949      2.000000
 -0.051199 -0.069989  0.004944      2.000000
 -0.039909 -0.074993  0.004940      2.000000
 -0.028619 -0.079997  0.004936      2.000000
 -0.017328 -0.085001  0.004931      2.000000
 -0.006038 -0.090005  0.004927      2.000000
  0.005252 -0.082698  0.004922      2.000000
  0.016542 -0.087702  0.004918      2.000000
  0.027833 -0.092706  0.004913      2.000000
  0.039123 -0.097710  0.004909      2.000000
  0.050413 -0.102714  0.004904      2.000000
  0.061703 -0.107718  0.004900      2.000000
  0.072994 -0.112722  0.004896      2.000000
  0.084284 -0.117726  0.004891      2.000000
  0.095574 -0.122730  0.004887      2.000000
  0.106864 -0.127734  0.004882      2.000000
  0.118155 -0.132738  0.004878      2.000000
 -0.118941 -0.027654  0.004971      2.000000
 -0.107650 -0.032658  0.004967      2.000000
 -0.096360 -0.037662  0.004962      2.000000
 -0.085070 -0.042666  0.004958      2.000000
 -0.073780 -0.047670  0.004953      2.000000
 -0.062489 -0.052674  0.004949      2.000000
 -0.051199 -0.057678  0.004944      2.000000
 -0.039909 -0.062682  0.004940      2.000000
 -0.028619 -0.067686  0.004936      2.000000
 -0.017328 -0.072690  0.004931      2.000000
 -0.006038 -0.077694  0.004927      2.000000
  0.005252 -0.070387  0.004922      2.000000
  0.016542 -0.075391  0.004918      2.000000
  0.027833 -0.080395  0.004913      2.000000
  0.039123 -0.085399  0.004909      2.000000
  0.050413 -0.090403  0.004904      2.000000
  0.061703 -0.095407  0.004900      2.000000
  0.072994 -0.100411  0.004896      2.000000
  0.084284 -0.105415  0.004891      2.000000
  0.095574 -0.110419  0.004887      2.000000
  0.106864 -0.115423  0.004882      2.000000
  0.118155 -0.120427  0.004878      2.000000
 -0.118941 -0.015344  0.004971      2.000000
 -0.107650 -0.020348  0.004967      2.000000
 -0.096360 -0.025352  0.004962      2.000000
 -0.085070 -0.030356  0.004958      2.000000
 -0.073780 -0.035360  0.004953      2.000000
 -0.062489 -0.040364  0.004949      2.000000
 -0.051199 -0.045367  0.004944      2.000000
 -0.039909 -0.050371  0.004940      2.000000
 -0.028619 -0.055375  0.004936      2.000000
 -0.017328 -0.060379  0.004931      2.000000
 -0.006038 -0.065383  0.004927      2.000000
  0.005252 -0.058077  0.004922      2.000000
  0.016542 -0.063081  0.004918      2.000000
  0.027833 -0.068085  0.004913      2.000000
  0.039123 -0.073088  0.004909      2.000000
  0.050413 -0.078092  0.004904      2.000000
  0.061703 -0.083096  0.004900      2.000000
  0.072994 -0.088100  0.004896      2.000000
  0.084284 -0.093104  0.004891      2.000000
  0.095574 -0.098108  0.004887      2.000000
  0.106864 -0.103112  0.004882      2.000000
  0.118155 -0.108116  0.004878      2.000000
 -0.118941 -0.003033  0.004971      2.000000
 -0.107650 -0.008037  0.004967      2.000000
 -0.096360 -0.013041  0.004962      2.000000
 -0.085070 -0.018045  0.004958      2.000000
 -0.073780 -0.023049  0.004953      2.000000
 -0.062489 -0.028053  0.004949      2.000000
 -0.051199 -0.033057  0.004944      2.000000
 -0.039909 -0.038061  0.004940      2.000000
 -0.028619 -0.043065  0.004936      2.000000
 -0.017328 -0.048069  0.004931      2.000000
 -0.006038 -0.053073  0.004927      2.000000
  0.005252 -0.045766  0.004922      2.000000
  0.016542 -0.050770  0.004918      2.000000
  0.027833 -0.055774  0.004913      2.000000
  0.039123 -0.060778  0.004909      2.000000
  0.050413 -0.065782  0.004904      2.000000
  0.061703 -0.070786  0.004900      2.000000
  0.072994 -0.075790  0.004896      2.000000
  0.084284 -0.080794  0.004891      2.000000
  0.095574 -0.085798  0.004887      2.000000
  0.106864 -0.090802  0.004882      2.000000
  0.118155 -0.095806  0.004878      2.000000
 -0.118941  0.009278  0.004971      2.000000
 -0.107650  0.004274  0.004967      2.000000
 -0.096360 -0.000730  0.004962      2.000000
 -0.085070 -0.005734  0.004958      2.000000
 -0.073780 -0.010738  0.004953      2.000000
 -0.062489 -0.015742  0.004949      2.000000
 -0.051199 -0.020746  0.004944      2.000000
 -0.039909 -0.025750  0.004940      2.000000
 -0.028619 -0.030754  0.004936      2.000000
 -0.017328 -0.035758  0.004931      2.000000
 -0.006038 -0.040762  0.004927      2.000000
  0.005252 -0.033455  0.004922      2.000000
  0.016542 -0.038459  0.004918      2.000000
  0.027833 -0.043463  0.004913      2.000000
  0.039123 -0.048467  0.004909      2.000000
  0.050413 -0.053471  0.004904      2.000000
  0.061703 -0.058475  0.004900      2.000000
  0.072994 -0.063479  0.004896      2.000000
  0.084284 -0.068483  0.004891      2.000000
  0.095574 -0.073487  0.004887      2.000000
  0.106864 -0.078491  0.004882      2.000000
  0.118155 -0.083495  0.004878      2.000000
 -0.118941  0.021588  0.004971      2.000000
 -0.107650  0.016584  0.004967      2.000000
 -0.096360  0.011580  0.004962      2.000000
 -0.085070  0.006577  0.004958      2.000000
 -0.073780  0.001573  0.004953      2.000000
 -0.062489 -0.003431  0.004949      2.000000
 -0.051199 -0.008435  0.004944      2.000000
 -0.039909 -0.013439  0.004940      2.000000
 -0.028619 -0.018443  0.004936      2.000000
 -0.017328 -0.023447  0.004931      2.000000
 -0.006038 -0.028451  0.004927      2.000000
  0.005252 -0.021144  0.004922      2.000000
  0.016542 -0.026148  0.004918      2.000000
  0.027833 -0.031152  0.004913      2.000000
  0.039123 -0.036156  0.004909      2.000000
  0.050413 -0.041160  0.004904      2.000000
  0.061703 -0.046164  0.004900      2.000000
  0.072994 -0.051168  0.004896      2.000000
  0.084284 -0.056172  0.004891      2.000000
  0.095574 -0.061176  0.004887      2.000000
  0.106864 -0.066180  0.004882      2.000000
  0.118155 -0.071184  0.004878      2.000000
 -0.118941  0.033899  0.004971      2.000000
 -0.107650  0.028895  0.004967      2.000000
 -0.096360  0.023891  0.004962      2.000000
 -0.085070  0.018887  0.004958      2.000000
 -0.073780  0.013883  0.004953      2.000000
 -0.062489  0.008879  0.004949      2.000000
 -0.051199  0.003875  0.004944      2.000000
 -0.039909 -0.001129  0.004940      2.000000
 -0.028619 -0.006133  0.004936      2.000000
 -0.017328 -0.011137  0.004931      2.000000
 -0.006038 -0.016141  0.004927      2.000000
  0.005252 -0.008834  0.004922      2.000000
  0.016542 -0.013838  0.004918      2.000000
  0.027833 -0.018842  0.004913      2.000000
  0.039123 -0.023846  0.004909      2.000000
  0.050413 -0.028850  0.004904      2.000000
  0.061703 -0.033854  0.004900      2.000000
  0.072994 -0.038858  0.004896      2.000000
  0.084284 -0.043861  0.004891      2.000000
  0.095574 -0.048865  0.004887      2.000000
  0.106864 -0.053869  0.004882      2.000000
  0.118155 -0.058873  0.004878      2.000000
 -0.118941  0.046210  0.004971      2.000000
 -0.107650  0.041206  0.004967      2.000000
 -0.096360  0.036202  0.004962      2.000000
 -0.085070  0.031198  0.004958      2.000000
 -0.073780  0.026194  0.004953      2.000000
 -0.062489  0.021190  0.004949      2.000000
 -0.051199  0.016186  0.004944      2.000000
 -0.039909  0.011182  0.004940      2.000000
 -0.028619  0.006178  0.004936      2.000000
 -0.017328  0.001174  0.004931      2.000000
 -0.006038 -0.003830  0.004927      2.000000
  0.004466  0.003124  0.014771      2.000000
  0.015756 -0.001880  0.014767      2.000000
  0.027047 -0.006884  0.014762      2.000000
  0.038337 -0.011888  0.014758      2.000000
  0.049627 -0.016892  0.014753      2.000000
  0.060917 -0.021896  0.014749      2.000000
  0.072208 -0.026900  0.014744      2.000000
  0.083498 -0.031904  0.014740      2.000000
  0.094788 -0.036908  0.014736      2.000000
  0.106078 -0.041912  0.014731      2.000000
  0.117369 -0.046916  0.014727      2.000000
 -0.119727  0.058168  0.014820      2.000000
 -0.108436  0.053164  0.014816      2.000000
 -0.097146  0.048160  0.014811      2.000000
 -0.085856  0.043156  0.014807      2.000000
 -0.074566  0.038152  0.014802      2.000000
 -0.063275  0.033148  0.014798      2.000000
 -0.051985  0.028144  0.014793      2.000000
 -0.040695  0.023140  0.014789      2.000000
 -0.029405  0.018136  0.014785      2.000000
 -0.018114  0.013132  0.014780      2.000000
 -0.006824  0.008128  0.014776      2.000000
  0.004466  0.015435  0.014771      2.000000
  0.015756  0.010431  0.014767      2.000000
  0.027047  0.005427  0.014762      2.000000
  0.038337  0.000423  0.014758      2.000000
  0.049627 -0.004581  0.014753      2.000000
  0.060917 -0.009585  0.014749      2.000000
  0.072208 -0.014589  0.014744      2.000000
  0.083498 -0.019593  0.014740      2.000000
  0.094788 -0.024597  0.014736      2.000000
  0.106078 -0.029601  0.014731      2.000000
  0.117369 -0.034605  0.014727      2.000000
 -0.119727  0.070478  0.014820      2.000000
 -0.108436  0.065474  0.014816      2.000000
 -0.097146  0.060470  0.014811      2.000000
 -0.085856  0.055466  0.014807      2.000000
 -0.074566  0.050463  0.014802      2.000000
 -0.063275  0.045459  0.014798      2.000000
 -0.051985  0.040455  0.014793      2.000000
 -0.040695  0.035451  0.014789      2.000000
 -0.029405  0.030447  0.014785      2.000000
 -0.018114  0.025443  0.014780      2.000000
 -0.006824  0.020439  0.014776      2.000000
  0.004466  0.027745  0.014771      2.000000
  0.015756  0.022742  0.014767      2.000000
  0.027047  0.017738  0.014762      2.000000
  0.038337  0.012734  0.014758      2.000000
  0.049627  0.007730  0.014753      2.000000
  0.060917  0.002726  0.014749      2.000000
  0.072208 -0.002278  0.014744      2.000000
  0.083498 -0.007282  0.014740      2.000000
  0.094788 -0.012286  0.014736      2.000000
  0.106078 -0.017290  0.014731      2.000000
  0.117369 -0.022294  0.014727      2.000000
 -0.119727  0.082789  0.014820      2.000000
 -0.108436  0.077785  0.014816      2.000000
 -0.097146  0.072781  0.014811      2.000000
 -0.085856  0.067777  0.014807      2.000000
 -0.074566  0.062773  0.014802      2.000000
 -0.063275  0.057769  0.014798      2.000000
 -0.051985  0.052765  0.014793      2.000000
 -0.040695  0.047761  0.014789      2.000000
 -0.029405  0.042757  0.014785      2.000000
 -0.018114  0.037753  0.014780      2.000000
 -0.006824  0.032749  0.014776      2.000000
  0.004466  0.040056  0.014771      2.000000
  0.015756  0.035052  0.014767      2.000000
  0.027047  0.030048  0.014762      2.000000
  0.038337  0.025044  0.014758      2.000000
  0.049627  0.020040  0.014753      2.000000
  0.060917  0.015036  0.014749      2.000000
  0.072208  0.010032  0.014744      2.000000
  0.083498  0.005028  0.014740      2.000000
  0.094788  0.000025  0.014736      2.000000
  0.106078 -0.004979  0.014731      2.000000
  0.117369 -0.009983  0.014727      2.000000
 -0.119727  0.095100  0.014820      2.000000
 -0.108436  0.090096  0.014816      2.000000
 -0.097146  0.085092  0.014811      2.000000
 -0.085856  0.080088  0.014807      2.000000
 -0.074566  0.075084  0.014802      2.000000
 -0.063275  0.070080  0.014798      2.000000
 -0.051985  0.065076  0.014793      2.000000
 -0.040695  0.060072  0.014789      2.000000
 -0.029405  0.055068  0.014785      2.000000
 -0.018114  0.050064  0.014780      2.000000
 -0.006824  0.045060  0.014776      2.000000
  0.004466  0.052367  0.014771      2.000000
  0.015756  0.047363  0.014767      2.000000
  0.027047  0.042359  0.014762      2.000000
  0.038337  0.037355  0.014758      2.000000
  0.049627  0.032351  0.014753      2.000000
  0.060917  0.027347  0.014749      2.000000
  0.072208  0.022343  0.014744      2.000000
  0.083498  0.017339  0.014740      2.000000
  0.094788  0.012335  0.014736      2.000000
  0.106078  0.007331  0.014731      2.000000
  0.117369  0.002327  0.014727      2.000000
 -0.119727  0.107410  0.014820      2.000000
 -0.108436  0.102407  0.014816      2.000000
 -0.097146  0.097403  0.014811      2.000000
 -0.085856  0.092399  0.014807      2.000000
 -0.074566  0.087395  0.014802      2.000000
 -0.063275  0.082391  0.014798      2.000000
 -0.051985  0.077387  0.014793      2.000000
 -0.040695  0.072383  0.014789      2.000000
 -0.029405  0.067379  0.014785      2.000000
 -0.018114  0.062375  0.014780      2.000000
 -0.006824  0.057371  0.014776      2.000000
  0.004466  0.064678  0.014771      2.000000
  0.015756  0.059674  0.014767      2.000000
  0.027047  0.054670  0.014762      2.000000
  0.038337  0.049666  0.014758      2.000000
  0.049627  0.044662  0.014753      2.000000
  0.060917  0.039658  0.014749      2.000000
  0.072208  0.034654  0.014744      2.000000
  0.083498  0.029650  0.014740      2.000000
  0.094788  0.024646  0.014736      2.000000
  0.106078  0.019642  0.014731      2.000000
  0.117369  0.014638  0.014727      2.000000
 -0.119727  0.119721  0.014820      2.000000
 -0.108436  0.114717  0.014816      2.000000
 -0.097146  0.109713  0.014811      2.000000
 -0.085856  0.104709  0.014807      2.000000
 -0.074566  0.099705  0.014802      2.000000
 -0.063275  0.094701  0.014798      2.000000
 -0.051985  0.089697  0.014793      2.000000
 -0.040695  0.084693  0.014789      2.000000
 -0.029405  0.079689  0.014785      2.000000
 -0.018114  0.074686  0.014780      2.000000
 -0.006824  0.069682  0.014776      2.000000
  0.004466  0.076988  0.014771      2.000000
  0.015756  0.071984  0.014767      2.000000
  0.027047  0.066980  0.014762      2.000000
  0.038337  0.061976  0.014758      2.000000
  0.049627  0.056972  0.014753      2.000000
  0.060917  0.051969  0.014749      2.000000
  0.072208  0.046965  0.014744      2.000000
  0.083498  0.041961  0.014740      2.000000
  0.094788  0.036957  0.014736      2.000000
  0.106078  0.031953  0.014731      2.000000
  0.117369  0.026949  0.014727      2.000000
 -0.119727  0.132032  0.014820      2.000000
 -0.108436  0.127028  0.014816      2.000000
 -0.097146  0.122024  0.014811      2.000000
 -0.085856  0.117020  0.014807      2.000000
 -0.074566  0.112016  0.014802      2.000000
 -0.063275  0.107012  0.014798      2.000000
 -0.051985  0.102008  0.014793      2.000000
 -0.040695  0.097004  0.014789      2.000000
 -0.029405  0.092000  0.014785      2.000000
 -0.018114  0.086996  0.014780      2.000000
 -0.006824  0.081992  0.014776      2.000000
  0.004466  0.089299  0.014771      2.000000
  0.015756  0.084295  0.014767      2.000000
  0.027047  0.079291  0.014762      2.000000
  0.038337  0.074287  0.014758      2.000000
  0.049627  0.069283  0.014753      2.000000
  0.060917  0.064279  0.014749      2.000000
  0.072208  0.059275  0.014744      2.000000
  0.083498  0.054271  0.014740      2.000000
  0.094788  0.049267  0.014736      2.000000
  0.106078  0.044263  0.014731      2.000000
  0.117369  0.039259  0.014727      2.000000
 -0.119727  0.144343  0.014820      2.000000
 -0.108436  0.139339  0.014816      2.000000
 -0.097146  0.134335  0.014811      2.000000
 -0.085856  0.129331  0.014807      2.000000
 -0.074566  0.124327  0.014802      2.000000
 -0.063275  0.119323  0.014798      2.000000
 -0.051985  0.114319  0.014793      2.000000
 -0.040695  0.109315  0.014789      2.000000
 -0.029405  0.104311  0.014785      2.000000
 -0.018114  0.099307  0.014780      2.000000
 -0.006824  0.094303  0.014776      2.000000
  0.004466  0.101610  0.014771      2.000000
  0.015756  0.096606  0.014767      2.000000
  0.027047  0.091602  0.014762      2.000000
  0.038337  0.086598  0.014758      2.000000
  0.049627  0.081594  0.014753      2.000000
  0.060917  0.076590  0.014749      2.000000
  0.072208  0.071586  0.014744      2.000000
  0.083498  0.066582  0.014740      2.000000
  0.094788  0.061578  0.014736      2.000000
  0.106078  0.056574  0.014731      2.000000
  0.117369  0.051570  0.014727      2.000000
 -0.119727  0.156653  0.014820      2.000000
 -0.108436  0.151649  0.014816      2.000000
 -0.097146  0.146645  0.014811      2.000000
 -0.085856  0.141641  0.014807      2.000000
 -0.074566  0.136637  0.014802      2.000000
 -0.063275  0.131633  0.014798      2.000000
 -0.051985  0.126630  0.014793      2.000000
 -0.040695  0.121626  0.014789      2.000000
 -0.029405  0.116622  0.014785      2.000000
 -0.018114  0.111618  0.014780      2.000000
 -0.006824  0.106614  0.014776      2.000000
  0.004466 -0.107672  0.014771      2.000000
  0.015756 -0.112676  0.014767      2.000000
  0.027047 -0.117680  0.014762      2.000000
  0.038337 -0.122684  0.014758      2.000000
  0.049627 -0.127688  0.014753      2.000000
  0.060917 -0.132692  0.014749      2.000000
  0.072208 -0.137696  0.014744      2.000000
  0.083498 -0.142700  0.014740      2.000000
  0.094788 -0.147704  0.014736      2.000000
  0.106078 -0.152708  0.014731      2.000000
  0.117369 -0.157712  0.014727      2.000000
 -0.119727 -0.052629  0.014820      2.000000
 -0.108436 -0.057633  0.014816      2.000000
 -0.097146 -0.062637  0.014811      2.000000
 -0.085856 -0.067641  0.014807      2.000000
 -0.074566 -0.072645  0.014802      2.000000
 -0.063275 -0.077649  0.014798      2.000000
 -0.051985 -0.082652  0.014793      2.000000
 -0.040695 -0.087656  0.014789      2.000000
 -0.029405 -0.092660  0.014785      2.000000
 -0.018114 -0.097664  0.014780      2.000000
 -0.006824 -0.102668  0.014776      2.000000
  0.004466 -0.095362  0.014771      2.000000
  0.015756 -0.100366  0.014767      2.000000
  0.027047 -0.105370  0.014762      2.000000
  0.038337 -0.110373  0.014758      2.000000
  0.049627 -0.115377  0.014753      2.000000
  0.060917 -0.120381  0.014749      2.000000
  0.072208 -0.125385  0.014744      2.000000
  0.083498 -0.130389  0.014740      2.000000
  0.094788 -0.135393  0.014736      2.000000
  0.106078 -0.140397  0.014731      2.000000
  0.117369 -0.145401  0.014727      2.000000
 -0.119727 -0.040318  0.014820      2.000000
 -0.108436 -0.045322  0.014816      2.000000
 -0.097146 -0.050326  0.014811      2.000000
 -0.085856 -0.055330  0.014807      2.000000
 -0.074566 -0.060334  0.014802      2.000000
 -0.063275 -0.065338  0.014798      2.000000
 -0.051985 -0.070342  0.014793      2.000000
 -0.040695 -0.075346  0.014789      2.000000
 -0.029405 -0.080350  0.014785      2.000000
 -0.018114 -0.085354  0.014780      2.000000
 -0.006824 -0.090358  0.014776      2.000000
  0.004466 -0.083051  0.014771      2.000000
  0.015756 -0.088055  0.014767      2.000000
  0.027047 -0.093059  0.014762      2.000000
  0.038337 -0.098063  0.014758      2.000000
  0.049627 -0.103067  0.014753      2.000000
  0.060917 -0.108071  0.014749      2.000000
  0.072208 -0.113075  0.014744      2.000000
  0.083498 -0.118079  0.014740      2.000000
  0.094788 -0.123083  0.014736      2.000000
  0.106078 -0.128087  0.014731      2.000000
  0.117369 -0.133090  0.014727      2.000000
 -0.119727 -0.028007  0.014820      2.000000
 -0.108436 -0.033011  0.014816      2.000000
 -0.097146 -0.038015  0.014811      2.000000
 -0.085856 -0.043019  0.014807      2.000000
 -0.074566 -0.048023  0.014802      2.000000
 -0.063275 -0.053027  0.014798      2.000000
 -0.051985 -0.058031  0.014793      2.000000
 -0.040695 -0.063035  0.014789      2.000000
 -0.029405 -0.068039  0.014785      2.000000
 -0.018114 -0.073043  0.014780      2.000000
 -0.006824 -0.078047  0.014776      2.000000
  0.004466 -0.070740  0.014771      2.000000
  0.015756 -0.075744  0.014767      2.000000
  0.027047 -0.080748  0.014762      2.000000
  0.038337 -0.085752  0.014758      2.000000
  0.049627 -0.090756  0.014753      2.000000
  0.060917 -0.095760  0.014749      2.000000
  0.072208 -0.100764  0.014744      2.000000
  0.083498 -0.105768  0.014740      2.000000
  0.094788 -0.110772  0.014736      2.000000
  0.106078 -0.115776  0.014731      2.000000
  0.117369 -0.120780  0.014727      2.000000
 -0.119727 -0.015697  0.014820      2.000000
 -0.108436 -0.020701  0.014816      2.000000
 -0.097146 -0.025705  0.014811      2.000000
 -0.085856 -0.030708  0.014807      2.000000
 -0.074566 -0.035712  0.014802      2.000000
 -0.063275 -0.040716  0.014798      2.000000
 -0.051985 -0.045720  0.014793      2.000000
 -0.040695 -0.050724  0.014789      2.000000
 -0.029405 -0.055728  0.014785      2.000000
 -0.018114 -0.060732  0.014780      2.000000
 -0.006824 -0.065736  0.014776      2.000000
  0.004466 -0.058429  0.014771      2.000000
  0.015756 -0.063433  0.014767      2.000000
  0.027047 -0.068437  0.014762      2.000000
  0.038337 -0.073441  0.014758      2.000000
  0.049627 -0.078445  0.014753      2.000000
  0.060917 -0.083449  0.014749      2.000000
  0.072208 -0.088453  0.014744      2.000000
  0.083498 -0.093457  0.014740      2.000000
  0.094788 -0.098461  0.014736      2.000000
  0.106078 -0.103465  0.014731      2.000000
  0.117369 -0.108469  0.014727      2.000000
 -0.119727 -0.003386  0.014820      2.000000
 -0.108436 -0.008390  0.014816      2.000000
 -0.097146 -0.013394  0.014811      2.000000
 -0.085856 -0.018398  0.014807      2.000000
 -0.074566 -0.023402  0.014802      2.000000
 -0.063275 -0.028406  0.014798      2.000000
 -0.051985 -0.033410  0.014793      2.000000
 -0.040695 -0.038414  0.014789      2.000000
 -0.029405 -0.043418  0.014785      2.000000
 -0.018114 -0.048422  0.014780      2.000000
 -0.006824 -0.053425  0.014776      2.000000
  0.004466 -0.046119  0.014771      2.000000
  0.015756 -0.051123  0.014767      2.000000
  0.027047 -0.056127  0.014762      2.000000
  0.038337 -0.061131  0.014758      2.000000
  0.049627 -0.066135  0.014753      2.000000
  0.060917 -0.071139  0.014749      2.000000
  0.072208 -0.076143  0.014744      2.000000
  0.083498 -0.081146  0.014740      2.000000
  0.094788 -0.086150  0.014736      2.000000
  0.106078 -0.091154  0.014731      2.000000
  0.117369 -0.096158  0.014727      2.000000
 -0.119727  0.008925  0.014820      2.000000
 -0.108436  0.003921  0.014816      2.000000
 -0.097146 -0.001083  0.014811      2.000000
 -0.085856 -0.006087  0.014807      2.000000
 -0.074566 -0.011091  0.014802      2.000000
 -0.063275 -0.016095  0.014798      2.000000
 -0.051985 -0.021099  0.014793      2.000000
 -0.040695 -0.026103  0.014789      2.000000
 -0.029405 -0.031107  0.014785      2.000000
 -0.018114 -0.036111  0.014780      2.000000
 -0.006824 -0.041115  0.014776      2.000000
  0.004466 -0.033808  0.014771      2.000000
[...]
     21       1.5532     -0.00107
     22       2.1483     -0.00000
     23       2.3165     -0.00000
     24       2.4333     -0.00000
     25       2.9370     -0.00000
     26       3.8146     -0.00000
     27       3.9201     -0.00000
     28       4.3901     -0.00000
     29       4.6260     -0.00000
     30       4.9614     -0.00000
     31       5.1893     -0.00000
     32       5.6694     -0.00000

 k-point   784 :      -0.3864   -0.0278    0.3750
  band No.  band energies     occupation 
      1      -8.2698      2.00000
      2      -7.4104      2.00000
      3      -6.0771      2.00000
      4      -5.6475      2.00000
      5      -4.8378      2.00000
      6      -4.3430      2.00000
      7      -3.5856      2.00000
      8      -3.4787      2.00000
      9      -3.3415      2.00000
     10      -2.7658      2.00000
     11      -2.5202      2.00000
     12      -2.3338      2.00000
     13      -1.8143      2.00000
     14      -1.4342      2.00000
     15      -1.0910      2.00000
     16      -0.3851      2.00000
     17       0.0933      2.00000
     18       0.3496      2.00002
     19       0.7675      2.07048
     20       1.0616      0.65755
     21       1.4075     -0.01951
     22       1.8880     -0.00000
     23       2.4265     -0.00000
     24       2.4939     -0.00000
     25       2.7230     -0.00000
     26       3.3396     -0.00000
     27       3.8429     -0.00000
     28       4.3364     -0.00000
     29       4.7350     -0.00000
     30       4.9591     -0.00000
     31       5.3826     -0.00000
     32       5.8151     -0.00000

 k-point   785 :      -0.3409   -0.0278    0.3750
  band No.  band energies     occupation 
      1      -8.6164      2.00000
      2      -7.7541      2.00000
      3      -6.4109      2.00000
      4      -5.0352      2.00000
      5      -4.7258      2.00000
      6      -4.1700      2.00000
      7      -3.5806      2.00000
      8      -3.0792      2.00000
      9      -2.9754      2.00000
     10      -2.7942      2.00000
     11      -2.5650      2.00000
     12      -2.1907      2.00000
     13      -1.4609      2.00000
     14      -1.3154      2.00000
     15      -0.7936      2.00000
     16      -0.5557      2.00000
     17       0.0526      2.00000
     18       0.4855      2.00103
     19       0.6265      2.01768
     20       1.1530      0.10656
     21       1.2454     -0.06752
     22       1.3829     -0.02781
     23       2.4858     -0.00000
     24       2.7249     -0.00000
     25       2.7490     -0.00000
     26       3.0337     -0.00000
     27       3.6844     -0.00000
     28       4.1823     -0.00000
     29       4.7289     -0.00000
     30       4.9480     -0.00000
     31       5.5988     -0.00000
     32       5.6705     -0.00000

 k-point   786 :      -0.2955   -0.0278    0.3750
  band No.  band energies     occupation 
      1      -8.9193      2.00000
      2      -8.0547      2.00000
      3      -6.7063      2.00000
      4      -4.9960      2.00000
      5      -4.3810      2.00000
      6      -3.5608      2.00000
      7      -3.5448      2.00000
      8      -3.0819      2.00000
      9      -2.7405      2.00000
     10      -2.6340      2.00000
     11      -2.2451      2.00000
     12      -1.8550      2.00000
     13      -1.4661      2.00000
     14      -1.0040      2.00000
     15      -0.5978      2.00000
     16      -0.4880      2.00000
     17      -0.2007      2.00000
     18       0.2714      2.00000
     19       0.8513      2.00112
     20       0.9336      1.66193
     21       1.1788      0.02355
     22       1.5222     -0.00221
     23       2.1183     -0.00000
     24       2.7435     -0.00000
     25       2.9349     -0.00000
     26       3.3496     -0.00000
     27       3.5469     -0.00000
     28       3.8629     -0.00000
     29       4.7378     -0.00000
     30       5.1228     -0.00000
     31       5.7749     -0.00000
     32       5.8861     -0.00000

 k-point   787 :      -0.2500   -0.0278    0.3750
  band No.  band energies     occupation 
      1      -9.1782      2.00000
      2      -8.3116      2.00000
      3      -6.9594      2.00000
      4      -5.2392      2.00000
      5      -3.6944      2.00000
      6      -3.5032      2.00000
      7      -3.2905      2.00000
      8      -2.8518      2.00000
      9      -2.6197      2.00000
     10      -2.3293      2.00000
     11      -1.6923      2.00000
     12      -1.4903      2.00000
     13      -1.4127      2.00000
     14      -1.0583      2.00000
     15      -0.8173      2.00000
     16      -0.2414      2.00000
     17      -0.1154      2.00000
     18       0.3047      2.00001
     19       0.6814      2.03765
     20       0.8238      2.04623
     21       1.3984     -0.02237
     22       1.5466     -0.00126
     23       2.0857     -0.00000
     24       2.8555     -0.00000
     25       2.9548     -0.00000
     26       3.2446     -0.00000
     27       3.7123     -0.00000
     28       3.9750     -0.00000
     29       4.8027     -0.00000
     30       5.0047     -0.00000
     31       5.0789     -0.00000
     32       5.3441     -0.00000

 k-point   788 :      -0.2045   -0.0278    0.3750
  band No.  band energies     occupation 
      1      -9.3927      2.00000
      2      -8.5247      2.00000
      3      -7.1696      2.00000
      4      -5.4431      2.00000
      5      -3.5178      2.00000
      6      -3.3649      2.00000
      7      -2.9476      2.00000
      8      -2.5459      2.00000
      9      -2.1226      2.00000
     10      -1.9263      2.00000
     11      -1.6115      2.00000
     12      -1.3634      2.00000
     13      -1.1372      2.00000
     14      -1.1077      2.00000
     15      -0.7298      2.00000
     16      -0.4335      2.00000
     17       0.1535      2.00000
     18       0.6060      2.01264
     19       0.6368      2.02071
     20       0.9305      1.68059
     21       1.1153      0.28720
     22       1.9265     -0.00000
     23       2.2646     -0.00000
     24       2.5951     -0.00000
     25       3.0571     -0.00000
     26       3.3487     -0.00000
     27       3.9382     -0.00000
     28       4.2158     -0.00000
     29       4.3044     -0.00000
     30       4.7732     -0.00000
     31       4.9013     -0.00000
     32       5.1831     -0.00000

 k-point   789 :      -0.1591   -0.0278    0.3750
  band No.  band energies     occupation 
      1      -9.5628      2.00000
      2      -8.6936      2.00000
      3      -7.3362      2.00000
      4      -5.6055      2.00000
      5      -3.6518      2.00000
      6      -3.2277      2.00000
      7      -2.4066      2.00000
      8      -2.1970      2.00000
      9      -1.8771      2.00000
     10      -1.6148      2.00000
     11      -1.5118      2.00000
     12      -1.3757      2.00000
     13      -1.1220      2.00000
     14      -0.8156      2.00000
     15      -0.5942      2.00000
     16      -0.0458      2.00000
     17       0.3350      2.00001
     18       0.5084      2.00178
     19       0.7720      2.07084
     20       0.8630      1.97273
     21       1.6510     -0.00008
     22       2.1063     -0.00000
     23       2.2897     -0.00000
     24       2.5425     -0.00000
     25       3.0033     -0.00000
     26       3.4965     -0.00000
     27       3.8888     -0.00000
     28       4.0203     -0.00000
     29       4.1349     -0.00000
     30       4.3363     -0.00000
     31       4.4086     -0.00000
     32       4.9917     -0.00000

 k-point   790 :      -0.1136   -0.0278    0.3750
  band No.  band energies     occupation 
      1      -9.6882      2.00000
      2      -8.8181      2.00000
      3      -7.4592      2.00000
      4      -5.7256      2.00000
      5      -3.7619      2.00000
      6      -3.0406      2.00000
      7      -2.2829      2.00000
      8      -2.2218      2.00000
      9      -1.7392      2.00000
     10      -1.4830      2.00000
     11      -1.3542      2.00000
     12      -1.0352      2.00000
     13      -0.7597      2.00000
     14      -0.5761      2.00000
     15      -0.1669      2.00000
     16       0.1198      2.00000
     17       0.3626      2.00003
     18       0.6744      2.03464
     19       0.9723      1.39210
     20       1.2059     -0.03207
     21       1.7714     -0.00000
     22       2.3216     -0.00000
     23       2.3408     -0.00000
     24       2.7595     -0.00000
     25       2.9530     -0.00000
     26       3.0779     -0.00000
     27       3.1712     -0.00000
     28       3.5567     -0.00000
     29       3.8819     -0.00000
     30       4.1164     -0.00000
     31       4.5040     -0.00000
     32       4.8580     -0.00000

 k-point   791 :      -0.0682   -0.0278    0.3750
  band No.  band energies     occupation 
      1      -9.7688      2.00000
      2      -8.8982      2.00000
      3      -7.5383      2.00000
      4      -5.8030      2.00000
      5      -3.8349      2.00000
      6      -2.8131      2.00000
      7      -2.6418      2.00000
      8      -2.0585      2.00000
      9      -1.8875      2.00000
     10      -1.6281      2.00000
     11      -0.8328      2.00000
     12      -0.6025      2.00000
     13      -0.4694      2.00000
     14      -0.0931      2.00000
     15       0.1645      2.00000
     16       0.2982      2.00000
     17       0.3183      2.00001
     18       1.0450      0.79129
     19       1.3864     -0.02651
     20       1.4847     -0.00493
     21       1.7260     -0.00001
     22       2.1250     -0.00000
     23       2.2770     -0.00000
     24       2.3580     -0.00000
     25       2.8111     -0.00000
     26       2.9806     -0.00000
     27       3.1340     -0.00000
     28       3.2570     -0.00000
     29       3.4587     -0.00000
     30       3.7535     -0.00000
     31       4.1961     -0.00000
     32       4.2784     -0.00000

 k-point   792 :      -0.0227   -0.0278    0.3750
  band No.  band energies     occupation 
      1      -9.8046      2.00000
      2      -8.9337      2.00000
      3      -7.5734      2.00000
      4      -5.8375      2.00000
      5      -3.8689      2.00000
      6      -2.9809      2.00000
      7      -2.5437      2.00000
      8      -2.1906      2.00000
      9      -1.8740      2.00000
     10      -1.6107      2.00000
     11      -0.8586      2.00000
     12      -0.1672      2.00000
     13      -0.0775      2.00000
     14       0.0672      2.00000
     15       0.2669      2.00000
     16       0.6219      2.01644
     17       0.8321      2.03554
     18       0.9596      1.48761
     19       1.4164     -0.01699
     20       1.5938     -0.00038
     21       1.8100     -0.00000
     22       1.8461     -0.00000
     23       2.2067     -0.00000
     24       2.2307     -0.00000
     25       2.3422     -0.00000
     26       2.6771     -0.00000
     27       3.0617     -0.00000
     28       3.4550     -0.00000
     29       3.5318     -0.00000
     30       3.7808     -0.00000
     31       4.0041     -0.00000
     32       4.0082     -0.00000


--------------------------------------------------------------------------------------------------------


 soft charge-density along one line, spin component           1
         0         1         2         3         4         5         6         7         8         9
 total charge-density along one line
 
 pseudopotential strength for first ion, spin component:           1
  8.680  14.806  -0.000   0.001  -0.000  -0.000   0.003  -0.000
 14.806  25.253  -0.000   0.002  -0.000  -0.000   0.005  -0.000
 -0.000  -0.000   1.977  -0.000   0.000   5.748  -0.000   0.000
  0.001   0.002  -0.000   1.977  -0.000  -0.000   5.750  -0.000
 -0.000  -0.000   0.000  -0.000   1.977   0.000  -0.000   5.749
 -0.000  -0.000   5.748  -0.000   0.000  16.601  -0.000   0.000
  0.003   0.005  -0.000   5.750  -0.000  -0.000  16.605  -0.000
 -0.000  -0.000   0.000  -0.000   5.749   0.000  -0.000  16.603
 total augmentation occupancy for first ion, spin component:           1
  3.016  -0.654   0.024  -0.187   0.015  -0.004   0.028  -0.002
 -0.654   0.209  -0.018   0.109  -0.009   0.002  -0.010   0.001
  0.024  -0.018   1.073   0.007  -0.001  -0.068  -0.001   0.000
 -0.187   0.109   0.007   0.914   0.007  -0.001  -0.052  -0.001
  0.015  -0.009  -0.001   0.007   1.005   0.000  -0.001  -0.060
 -0.004   0.002  -0.068  -0.001   0.000   0.005   0.000  -0.000
  0.028  -0.010  -0.001  -0.052  -0.001   0.000   0.003   0.000
 -0.002   0.001   0.000  -0.001  -0.060  -0.000   0.000   0.004


------------------------ aborting loop because EDIFF is reached ----------------------------------------


    CHARGE:  cpu time    3.5861: real time    3.6686
    FORLOC:  cpu time    0.0037: real time    0.0037
    FORNL :  cpu time   18.4833: real time   18.9721
    STRESS:  cpu time   55.4277: real time   56.9616
    FORCOR:  cpu time    0.0305: real time    0.0305
    FORHAR:  cpu time    0.0095: real time    0.0095
    MIXING:  cpu time    0.0026: real time    0.0026
    OFIELD:  cpu time    0.0000: real time    0.0000

  FORCE on cell =-STRESS in cart. coord.  units (eV):
  Direction    XX          YY          ZZ          XY          YZ          ZX
  --------------------------------------------------------------------------------------
  Alpha Z    -1.04873    -1.04873    -1.04873
  Ewald    4093.74888  4141.60748 -4653.28523   -25.06217   313.96036   702.49595
  Hartree  4165.67616  4207.36121 -4151.14114   -23.92499   299.76780   668.00813
  E(xc)    -100.54014  -100.60022  -100.73677    -0.00057     0.00066     0.01752
  Local   -8548.94534 -8639.22828  8516.49693    48.99712  -613.95726 -1370.63436
  n-local   230.22937   231.27065   227.20467    -0.00433     0.14361     0.22141
  augment   -13.24026   -13.29225   -13.18473    -0.00007     0.00883    -0.00364
  Kinetic   170.81753   170.17606   176.50268     0.01671    -0.65952    -0.45598
  Fock        0.00000     0.00000     0.00000     0.00000     0.00000     0.00000
  -------------------------------------------------------------------------------------
  Total      -3.30254    -3.75408     0.80767     0.02172    -0.73552    -0.35096
  in kB     -11.47294   -13.04161     2.80584     0.07546    -2.55518    -1.21923
  external pressure =       -7.24 kB  Pullay stress =        0.00 kB


 VOLUME and BASIS-vectors are now :
 -----------------------------------------------------------------------------
  energy-cutoff  :      400.00
  volume of cell :      461.19
      direct lattice vectors                 reciprocal lattice vectors
     4.026127982  0.000000000  0.321319994     0.248385408 -0.110087147 -0.000097850
     2.000241927  4.512783542  0.321319994     0.000000000  0.221592724  0.000000000
     0.010000000  0.000000000 25.384279508    -0.003144119 -0.001411463  0.039395699

  length of vectors
     4.038929693  4.946658428 25.384281477     0.271688241  0.221592724  0.039546161


 FORCES acting on ions
    electron-ion (+dipol)            ewald-force                    non-local-force                 convergence-correction
 -----------------------------------------------------------------------------------------------
   0.181E+02 0.102E+02 -.227E+03   -.181E+02 -.102E+02 0.226E+03   -.964E-01 -.101E+00 0.121E+01   -.458E-05 0.430E-05 0.563E-04
   0.101E+02 0.516E+01 -.126E+03   -.101E+02 -.500E+01 0.127E+03   0.191E-01 -.220E+00 -.230E+00   0.200E-05 0.498E-05 -.259E-04
   0.206E+02 0.845E+01 -.258E+03   -.205E+02 -.878E+01 0.257E+03   -.552E-01 0.317E+00 0.646E+00   -.490E-05 -.340E-05 0.619E-04
   0.144E+02 0.427E+01 -.180E+03   -.143E+02 -.436E+01 0.180E+03   -.279E-01 0.117E+00 0.350E+00   -.148E-05 -.716E-05 0.198E-04
   0.202E+01 0.103E+01 -.253E+02   -.203E+01 -.875E+00 0.254E+02   0.538E-02 -.780E-01 -.998E-01   0.193E-05 0.293E-05 -.232E-04
   -.609E+01 -.276E+01 0.763E+02   0.609E+01 0.271E+01 -.763E+02   0.269E-02 0.344E-01 -.730E-02   -.417E-05 0.475E-06 0.521E-04
   0.609E+01 0.276E+01 -.763E+02   -.609E+01 -.271E+01 0.763E+02   -.269E-02 -.344E-01 0.730E-02   0.417E-05 -.475E-06 -.521E-04
   -.202E+01 -.103E+01 0.253E+02   0.203E+01 0.875E+00 -.254E+02   -.538E-02 0.780E-01 0.998E-01   -.193E-05 -.293E-05 0.232E-04
   -.144E+02 -.427E+01 0.180E+03   0.143E+02 0.436E+01 -.180E+03   0.279E-01 -.117E+00 -.350E+00   0.148E-05 0.716E-05 -.198E-04
   -.206E+02 -.845E+01 0.258E+03   0.205E+02 0.878E+01 -.257E+03   0.552E-01 -.317E+00 -.646E+00   0.490E-05 0.340E-05 -.619E-04
   -.101E+02 -.516E+01 0.126E+03   0.101E+02 0.500E+01 -.127E+03   -.191E-01 0.220E+00 0.230E+00   -.200E-05 -.498E-05 0.259E-04
   -.181E+02 -.102E+02 0.227E+03   0.181E+02 0.102E+02 -.226E+03   0.964E-01 0.101E+00 -.121E+01   0.458E-05 -.430E-05 -.563E-04
 -----------------------------------------------------------------------------------------------
   -.151E-05 0.147E-04 -.935E-06   -.711E-14 0.711E-14 0.171E-12   0.000E+00 0.278E-16 -.222E-15   -.197E-09 -.852E-10 0.243E-08
 
 
 POSITION                                       TOTAL-FORCE (eV/Angst)
 -----------------------------------------------------------------------------------
      2.12831      0.72527     24.21949        -0.026359     -0.067491      0.312408
      4.28170      1.69229     22.61289        -0.003897     -0.061035      0.050027
      4.06480      2.49815     25.34411         0.017692     -0.007996     -0.230570
      2.19206      3.46517     23.41619        -0.005879      0.030856      0.078362
      2.40897      2.65932     20.68497        -0.000382      0.073725      0.010005
      4.56236      3.62634     19.07837        -0.002106     -0.013219      0.030094
      4.34546      4.43220     21.80959         0.002106      0.013219     -0.030094
      0.47248      0.88644     19.56035         0.000382     -0.073725     -0.010005
      0.68938      0.08059     16.82913         0.005879     -0.030856     -0.078362
      2.84277      1.04761     15.22253        -0.017692      0.007996      0.230570
      2.62587      1.85346     17.95375         0.003897      0.061035     -0.050027
      4.77926      2.82049     16.34715         0.026359      0.067491     -0.312408
 -----------------------------------------------------------------------------------
    total drift:                               -0.000002      0.000015     -0.000001


--------------------------------------------------------------------------------------------------------



  FREE ENERGIE OF THE ION-ELECTRON SYSTEM (eV)
  ---------------------------------------------------
  free  energy   TOTEN  =       -42.53786595 eV

  energy  without entropy=      -42.53865314  energy(sigma->0) =      -42.53812835
 


--------------------------------------------------------------------------------------------------------


    POTLOK:  cpu time    0.0339: real time    0.0387


--------------------------------------------------------------------------------------------------------


     LOOP+:  cpu time 1528.2582: real time 1568.4778
    4ORBIT:  cpu time    0.0000: real time    0.0000

 total amount of memory used by VASP MPI-rank0   152101. kBytes
=======================================================================

   base      :      30000. kBytes
   nonlr-proj:       3673. kBytes
   fftplans  :       2015. kBytes
   grid      :       8108. kBytes
   one-center:         36. kBytes
   wavefun   :     108269. kBytes
 
  
  
 General timing and accounting informations for this job:
 ========================================================
  
                  Total CPU time used (sec):     1551.588
                            User time (sec):     1406.141
                          System time (sec):      145.447
                         Elapsed time (sec):     1592.941
  
                   Maximum memory used (kb):      527480.
                   Average memory used (kb):           0.
  
                          Minor page faults:      5893773
                          Major page faults:            2
                 Voluntary context switches:          339
