<?xml version="1.0" encoding="ISO-8859-1"?>
<modeling>
 <generator>
  <i name="program" type="string">vasp </i>
  <i name="version" type="string">5.4.4.18Apr17-6-g9f103f2a35  </i>
  <i name="subversion" type="string">(build Nov 07 2022 11:18:25) complex            parallel </i>
  <i name="platform" type="string">LinuxIFC </i>
  <i name="date" type="string">2024 05 28 </i>
  <i name="time" type="string">10:12:37 </i>
 </generator>
 <incar>
  <i type="string" name="SYSTEM"> Al fcc relaxation</i>
  <i type="string" name="PREC">accurate</i>
  <i type="string" name="ALGO"> Fast</i>
  <i type="int" name="NELM">    60</i>
  <i type="int" name="NELMIN">     4</i>
  <i type="int" name="IBRION">     2</i>
  <i name="EDIFF">      0.00000100</i>
  <i type="int" name="NSW">     0</i>
  <i type="int" name="ISIF">     3</i>
  <i name="ENCUT">    400.00000000</i>
  <i type="string" name="LREAL"> Auto</i>
  <i type="int" name="ISMEAR">     1</i>
  <i name="SIGMA">      0.20000000</i>
  <i name="KSPACING">      0.08000000</i>
  <i type="logical" name="LWAVE"> F  </i>
  <i type="logical" name="LCHARG"> F  </i>
  <v type="int" name="KPOINT_BSE">    -1     0     0     0</v>
  <i type="int" name="NELM">    60</i>
 </incar>
 <structure name="primitive_cell" >
  <crystal>
   <varray name="basis" >
    <v>       4.02612798       0.00000000       0.32131999 </v>
    <v>       2.00024193       4.51278354       0.32131999 </v>
    <v>       0.01000000       0.00000000      25.38427951 </v>
   </varray>
   <i name="volume">    461.19359319 </i>
   <varray name="rec_basis" >
    <v>       0.24838541      -0.11008715      -0.00009785 </v>
    <v>       0.00000000       0.22159272       0.00000000 </v>
    <v>      -0.00314412      -0.00141146       0.03939570 </v>
   </varray>
  </crystal>
  <varray name="positions" >
   <v>       0.44642857       0.16071429      -0.05357143 </v>
   <v>      -0.12500000       0.37500000      -0.12500000 </v>
   <v>       0.16071429      -0.23214286      -0.08928571 </v>
   <v>      -0.26785714      -0.44642857      -0.01785714 </v>
   <v>      -0.41071429      -0.01785714      -0.16071429 </v>
   <v>       0.30357143      -0.41071429      -0.19642857 </v>
   <v>       0.01785714       0.19642857      -0.23214286 </v>
   <v>      -0.26785714      -0.19642857      -0.26785714 </v>
   <v>       0.44642857       0.41071429      -0.30357143 </v>
   <v>       0.16071429       0.01785714      -0.33928571 </v>
   <v>      -0.12500000      -0.37500000      -0.37500000 </v>
   <v>      -0.41071429       0.23214286      -0.41071429 </v>
  </varray>
 </structure>
 <varray name="primitive_index" >
  <v type="int" >        1 </v>
  <v type="int" >        2 </v>
  <v type="int" >        4 </v>
  <v type="int" >        3 </v>
  <v type="int" >        7 </v>
  <v type="int" >        5 </v>
  <v type="int" >        8 </v>
  <v type="int" >        6 </v>
  <v type="int" >       11 </v>
  <v type="int" >        9 </v>
  <v type="int" >       12 </v>
  <v type="int" >       10 </v>
 </varray>
 <kpoints>
  <generation param="Monkhorst-Pack">
   <v type="int" name="divisions">      22       18        4 </v>
   <v name="usershift">      0.00000000       0.00000000       0.00000000 </v>
   <v name="genvec1">      0.04545455       0.00000000       0.00000000 </v>
   <v name="genvec2">      0.00000000       0.05555556       0.00000000 </v>
   <v name="genvec3">     -0.00000000       0.00000000       0.25000000 </v>
   <v name="shift">      0.50000000       0.50000000       0.50000000 </v>
  </generation>
  <varray name="kpointlist" >
   <v>       0.02272727       0.02777778       0.12500000 </v>
   <v>       0.06818182       0.02777778       0.12500000 </v>
   <v>       0.11363636       0.02777778       0.12500000 </v>
   <v>       0.15909091       0.02777778       0.12500000 </v>
   <v>       0.20454545       0.02777778       0.12500000 </v>
   <v>       0.25000000       0.02777778       0.12500000 </v>
   <v>       0.29545455       0.02777778       0.12500000 </v>
   <v>       0.34090909       0.02777778       0.12500000 </v>
   <v>       0.38636364       0.02777778       0.12500000 </v>
   <v>       0.43181818       0.02777778       0.12500000 </v>
   <v>       0.47727273       0.02777778       0.12500000 </v>
   <v>      -0.47727273       0.02777778       0.12500000 </v>
   <v>      -0.43181818       0.02777778       0.12500000 </v>
   <v>      -0.38636364       0.02777778       0.12500000 </v>
   <v>      -0.34090909       0.02777778       0.12500000 </v>
   <v>      -0.29545455       0.02777778       0.12500000 </v>
   <v>      -0.25000000       0.02777778       0.12500000 </v>
   <v>      -0.20454545       0.02777778       0.12500000 </v>
   <v>      -0.15909091       0.02777778       0.12500000 </v>
   <v>      -0.11363636       0.02777778       0.12500000 </v>
   <v>      -0.06818182       0.02777778       0.12500000 </v>
   <v>      -0.02272727       0.02777778       0.12500000 </v>
   <v>       0.02272727       0.08333333       0.12500000 </v>
   <v>       0.06818182       0.08333333       0.12500000 </v>
   <v>       0.11363636       0.08333333       0.12500000 </v>
   <v>       0.15909091       0.08333333       0.12500000 </v>
   <v>       0.20454545       0.08333333       0.12500000 </v>
   <v>       0.25000000       0.08333333       0.12500000 </v>
   <v>       0.29545455       0.08333333       0.12500000 </v>
   <v>       0.34090909       0.08333333       0.12500000 </v>
   <v>       0.38636364       0.08333333       0.12500000 </v>
   <v>       0.43181818       0.08333333       0.12500000 </v>
   <v>       0.47727273       0.08333333       0.12500000 </v>
   <v>      -0.47727273       0.08333333       0.12500000 </v>
   <v>      -0.43181818       0.08333333       0.12500000 </v>
   <v>      -0.38636364       0.08333333       0.12500000 </v>
   <v>      -0.34090909       0.08333333       0.12500000 </v>
   <v>      -0.29545455       0.08333333       0.12500000 </v>
   <v>      -0.25000000       0.08333333       0.12500000 </v>
   <v>      -0.20454545       0.08333333       0.12500000 </v>
   <v>      -0.15909091       0.08333333       0.12500000 </v>
   <v>      -0.11363636       0.08333333       0.12500000 </v>
   <v>      -0.06818182       0.08333333       0.12500000 </v>
   <v>      -0.02272727       0.08333333       0.12500000 </v>
   <v>       0.02272727       0.13888889       0.12500000 </v>
   <v>       0.06818182       0.13888889       0.12500000 </v>
   <v>       0.11363636       0.13888889       0.12500000 </v>
   <v>       0.15909091       0.13888889       0.12500000 </v>
   <v>       0.20454545       0.13888889       0.12500000 </v>
   <v>       0.25000000       0.13888889       0.12500000 </v>
   <v>       0.29545455       0.13888889       0.12500000 </v>
   <v>       0.34090909       0.13888889       0.12500000 </v>
   <v>       0.38636364       0.13888889       0.12500000 </v>
   <v>       0.43181818       0.13888889       0.12500000 </v>
   <v>       0.47727273       0.13888889       0.12500000 </v>
   <v>      -0.47727273       0.13888889       0.12500000 </v>
   <v>      -0.43181818       0.13888889       0.12500000 </v>
   <v>      -0.38636364       0.13888889       0.12500000 </v>
   <v>      -0.34090909       0.13888889       0.12500000 </v>
   <v>      -0.29545455       0.13888889       0.12500000 </v>
   <v>      -0.25000000       0.13888889       0.12500000 </v>
   <v>      -0.20454545       0.13888889       0.12500000 </v>
   <v>      -0.15909091       0.13888889       0.12500000 </v>
   <v>      -0.11363636       0.13888889       0.12500000 </v>
   <v>      -0.06818182       0.13888889       0.12500000 </v>
   <v>      -0.02272727       0.13888889       0.12500000 </v>
   <v>       0.02272727       0.19444444       0.12500000 </v>
   <v>       0.06818182       0.19444444       0.12500000 </v>
   <v>       0.11363636       0.19444444       0.12500000 </v>
   <v>       0.15909091       0.19444444       0.12500000 </v>
   <v>       0.20454545       0.19444444       0.12500000 </v>
   <v>       0.25000000       0.19444444       0.12500000 </v>
   <v>       0.29545455       0.19444444       0.12500000 </v>
   <v>       0.34090909       0.19444444       0.12500000 </v>
   <v>       0.38636364       0.19444444       0.12500000 </v>
   <v>       0.43181818       0.19444444       0.12500000 </v>
   <v>       0.47727273       0.19444444       0.12500000 </v>
   <v>      -0.47727273       0.19444444       0.12500000 </v>
   <v>      -0.43181818       0.19444444       0.12500000 </v>
   <v>      -0.38636364       0.19444444       0.12500000 </v>
   <v>      -0.34090909       0.19444444       0.12500000 </v>
   <v>      -0.29545455       0.19444444       0.12500000 </v>
   <v>      -0.25000000       0.19444444       0.12500000 </v>
   <v>      -0.20454545       0.19444444       0.12500000 </v>
   <v>      -0.15909091       0.19444444       0.12500000 </v>
   <v>      -0.11363636       0.19444444       0.12500000 </v>
   <v>      -0.06818182       0.19444444       0.12500000 </v>
   <v>      -0.02272727       0.19444444       0.12500000 </v>
   <v>       0.02272727       0.25000000       0.12500000 </v>
   <v>       0.06818182       0.25000000       0.12500000 </v>
   <v>       0.11363636       0.25000000       0.12500000 </v>
   <v>       0.15909091       0.25000000       0.12500000 </v>
   <v>       0.20454545       0.25000000       0.12500000 </v>
   <v>       0.25000000       0.25000000       0.12500000 </v>
   <v>       0.29545455       0.25000000       0.12500000 </v>
   <v>       0.34090909       0.25000000       0.12500000 </v>
   <v>       0.38636364       0.25000000       0.12500000 </v>
   <v>       0.43181818       0.25000000       0.12500000 </v>
   <v>       0.47727273       0.25000000       0.12500000 </v>
   <v>      -0.47727273       0.25000000       0.12500000 </v>
   <v>      -0.43181818       0.25000000       0.12500000 </v>
   <v>      -0.38636364       0.25000000       0.12500000 </v>
   <v>      -0.34090909       0.25000000       0.12500000 </v>
   <v>      -0.29545455       0.25000000       0.12500000 </v>
   <v>      -0.25000000       0.25000000       0.12500000 </v>
   <v>      -0.20454545       0.25000000       0.12500000 </v>
   <v>      -0.15909091       0.25000000       0.12500000 </v>
   <v>      -0.11363636       0.25000000       0.12500000 </v>
   <v>      -0.06818182       0.25000000       0.12500000 </v>
   <v>      -0.02272727       0.25000000       0.12500000 </v>
   <v>       0.02272727       0.30555556       0.12500000 </v>
   <v>       0.06818182       0.30555556       0.12500000 </v>
   <v>       0.11363636       0.30555556       0.12500000 </v>
   <v>       0.15909091       0.30555556       0.12500000 </v>
   <v>       0.20454545       0.30555556       0.12500000 </v>
   <v>       0.25000000       0.30555556       0.12500000 </v>
   <v>       0.29545455       0.30555556       0.12500000 </v>
   <v>       0.34090909       0.30555556       0.12500000 </v>
   <v>       0.38636364       0.30555556       0.12500000 </v>
   <v>       0.43181818       0.30555556       0.12500000 </v>
   <v>       0.47727273       0.30555556       0.12500000 </v>
   <v>      -0.47727273       0.30555556       0.12500000 </v>
   <v>      -0.43181818       0.30555556       0.12500000 </v>
   <v>      -0.38636364       0.30555556       0.12500000 </v>
   <v>      -0.34090909       0.30555556       0.12500000 </v>
   <v>      -0.29545455       0.30555556       0.12500000 </v>
   <v>      -0.25000000       0.30555556       0.12500000 </v>
   <v>      -0.20454545       0.30555556       0.12500000 </v>
   <v>      -0.15909091       0.30555556       0.12500000 </v>
   <v>      -0.11363636       0.30555556       0.12500000 </v>
   <v>      -0.06818182       0.30555556       0.12500000 </v>
   <v>      -0.02272727       0.30555556       0.12500000 </v>
   <v>       0.02272727       0.36111111       0.12500000 </v>
   <v>       0.06818182       0.36111111       0.12500000 </v>
   <v>       0.11363636       0.36111111       0.12500000 </v>
   <v>       0.15909091       0.36111111       0.12500000 </v>
   <v>       0.20454545       0.36111111       0.12500000 </v>
   <v>       0.25000000       0.36111111       0.12500000 </v>
   <v>       0.29545455       0.36111111       0.12500000 </v>
   <v>       0.34090909       0.36111111       0.12500000 </v>
   <v>       0.38636364       0.36111111       0.12500000 </v>
   <v>       0.43181818       0.36111111       0.12500000 </v>
   <v>       0.47727273       0.36111111       0.12500000 </v>
   <v>      -0.47727273       0.36111111       0.12500000 </v>
   <v>      -0.43181818       0.36111111       0.12500000 </v>
   <v>      -0.38636364       0.36111111       0.12500000 </v>
   <v>      -0.34090909       0.36111111       0.12500000 </v>
   <v>      -0.29545455       0.36111111       0.12500000 </v>
   <v>      -0.25000000       0.36111111       0.12500000 </v>
   <v>      -0.20454545       0.36111111       0.12500000 </v>
   <v>      -0.15909091       0.36111111       0.12500000 </v>
   <v>      -0.11363636       0.36111111       0.12500000 </v>
   <v>      -0.06818182       0.36111111       0.12500000 </v>
   <v>      -0.02272727       0.36111111       0.12500000 </v>
   <v>       0.02272727       0.41666667       0.12500000 </v>
   <v>       0.06818182       0.41666667       0.12500000 </v>
   <v>       0.11363636       0.41666667       0.12500000 </v>
   <v>       0.15909091       0.41666667       0.12500000 </v>
   <v>       0.20454545       0.41666667       0.12500000 </v>
   <v>       0.25000000       0.41666667       0.12500000 </v>
   <v>       0.29545455       0.41666667       0.12500000 </v>
   <v>       0.34090909       0.41666667       0.12500000 </v>
   <v>       0.38636364       0.41666667       0.12500000 </v>
   <v>       0.43181818       0.41666667       0.12500000 </v>
   <v>       0.47727273       0.41666667       0.12500000 </v>
   <v>      -0.47727273       0.41666667       0.12500000 </v>
   <v>      -0.43181818       0.41666667       0.12500000 </v>
   <v>      -0.38636364       0.41666667       0.12500000 </v>
   <v>      -0.34090909       0.41666667       0.12500000 </v>
   <v>      -0.29545455       0.41666667       0.12500000 </v>
   <v>      -0.25000000       0.41666667       0.12500000 </v>
   <v>      -0.20454545       0.41666667       0.12500000 </v>
   <v>      -0.15909091       0.41666667       0.12500000 </v>
   <v>      -0.11363636       0.41666667       0.12500000 </v>
   <v>      -0.06818182       0.41666667       0.12500000 </v>
   <v>      -0.02272727       0.41666667       0.12500000 </v>
   <v>       0.02272727       0.47222222       0.12500000 </v>
   <v>       0.06818182       0.47222222       0.12500000 </v>
   <v>       0.11363636       0.47222222       0.12500000 </v>
   <v>       0.15909091       0.47222222       0.12500000 </v>
   <v>       0.20454545       0.47222222       0.12500000 </v>
   <v>       0.25000000       0.47222222       0.12500000 </v>
   <v>       0.29545455       0.47222222       0.12500000 </v>
   <v>       0.34090909       0.47222222       0.12500000 </v>
   <v>       0.38636364       0.47222222       0.12500000 </v>
   <v>       0.43181818       0.47222222       0.12500000 </v>
   <v>       0.47727273       0.47222222       0.12500000 </v>
   <v>      -0.47727273       0.47222222       0.12500000 </v>
   <v>      -0.43181818       0.47222222       0.12500000 </v>
   <v>      -0.38636364       0.47222222       0.12500000 </v>
   <v>      -0.34090909       0.47222222       0.12500000 </v>
   <v>      -0.29545455       0.47222222       0.12500000 </v>
   <v>      -0.25000000       0.47222222       0.12500000 </v>
   <v>      -0.20454545       0.47222222       0.12500000 </v>
   <v>      -0.15909091       0.47222222       0.12500000 </v>
   <v>      -0.11363636       0.47222222       0.12500000 </v>
   <v>      -0.06818182       0.47222222       0.12500000 </v>
   <v>      -0.02272727       0.47222222       0.12500000 </v>
   <v>       0.02272727      -0.47222222       0.12500000 </v>
   <v>       0.06818182      -0.47222222       0.12500000 </v>
   <v>       0.11363636      -0.47222222       0.12500000 </v>
   <v>       0.15909091      -0.47222222       0.12500000 </v>
   <v>       0.20454545      -0.47222222       0.12500000 </v>
   <v>       0.25000000      -0.47222222       0.12500000 </v>
   <v>       0.29545455      -0.47222222       0.12500000 </v>
   <v>       0.34090909      -0.47222222       0.12500000 </v>
   <v>       0.38636364      -0.47222222       0.12500000 </v>
   <v>       0.43181818      -0.47222222       0.12500000 </v>
   <v>       0.47727273      -0.47222222       0.12500000 </v>
   <v>      -0.47727273      -0.47222222       0.12500000 </v>
   <v>      -0.43181818      -0.47222222       0.12500000 </v>
   <v>      -0.38636364      -0.47222222       0.12500000 </v>
   <v>      -0.34090909      -0.47222222       0.12500000 </v>
   <v>      -0.29545455      -0.47222222       0.12500000 </v>
   <v>      -0.25000000      -0.47222222       0.12500000 </v>
   <v>      -0.20454545      -0.47222222       0.12500000 </v>
   <v>      -0.15909091      -0.47222222       0.12500000 </v>
   <v>      -0.11363636      -0.47222222       0.12500000 </v>
   <v>      -0.06818182      -0.47222222       0.12500000 </v>
   <v>      -0.02272727      -0.47222222       0.12500000 </v>
   <v>       0.02272727      -0.41666667       0.12500000 </v>
   <v>       0.06818182      -0.41666667       0.12500000 </v>
   <v>       0.11363636      -0.41666667       0.12500000 </v>
   <v>       0.15909091      -0.41666667       0.12500000 </v>
   <v>       0.20454545      -0.41666667       0.12500000 </v>
   <v>       0.25000000      -0.41666667       0.12500000 </v>
   <v>       0.29545455      -0.41666667       0.12500000 </v>
   <v>       0.34090909      -0.41666667       0.12500000 </v>
   <v>       0.38636364      -0.41666667       0.12500000 </v>
   <v>       0.43181818      -0.41666667       0.12500000 </v>
   <v>       0.47727273      -0.41666667       0.12500000 </v>
   <v>      -0.47727273      -0.41666667       0.12500000 </v>
   <v>      -0.43181818      -0.41666667       0.12500000 </v>
   <v>      -0.38636364      -0.41666667       0.12500000 </v>
   <v>      -0.34090909      -0.41666667       0.12500000 </v>
   <v>      -0.29545455      -0.41666667       0.12500000 </v>
   <v>      -0.25000000      -0.41666667       0.12500000 </v>
   <v>      -0.20454545      -0.41666667       0.12500000 </v>
   <v>      -0.15909091      -0.41666667       0.12500000 </v>
   <v>      -0.11363636      -0.41666667       0.12500000 </v>
   <v>      -0.06818182      -0.41666667       0.12500000 </v>
   <v>      -0.02272727      -0.41666667       0.12500000 </v>
   <v>       0.02272727      -0.36111111       0.12500000 </v>
   <v>       0.06818182      -0.36111111       0.12500000 </v>
   <v>       0.11363636      -0.36111111       0.12500000 </v>
   <v>       0.15909091      -0.36111111       0.12500000 </v>
   <v>       0.20454545      -0.36111111       0.12500000 </v>
   <v>       0.25000000      -0.36111111       0.12500000 </v>
   <v>       0.29545455      -0.36111111       0.12500000 </v>
   <v>       0.34090909      -0.36111111       0.12500000 </v>
   <v>       0.38636364      -0.36111111       0.12500000 </v>
   <v>       0.43181818      -0.36111111       0.12500000 </v>
   <v>       0.47727273      -0.36111111       0.12500000 </v>
   <v>      -0.47727273      -0.36111111       0.12500000 </v>
   <v>      -0.43181818      -0.36111111       0.12500000 </v>
   <v>      -0.38636364      -0.36111111       0.12500000 </v>
   <v>      -0.34090909      -0.36111111       0.12500000 </v>
   <v>      -0.29545455      -0.36111111       0.12500000 </v>
   <v>      -0.25000000      -0.36111111       0.12500000 </v>
   <v>      -0.20454545      -0.36111111       0.12500000 </v>
   <v>      -0.15909091      -0.36111111       0.12500000 </v>
   <v>      -0.11363636      -0.36111111       0.12500000 </v>
   <v>      -0.06818182      -0.36111111       0.12500000 </v>
   <v>      -0.02272727      -0.36111111       0.12500000 </v>
   <v>       0.02272727      -0.30555556       0.12500000 </v>
   <v>       0.06818182      -0.30555556       0.12500000 </v>
   <v>       0.11363636      -0.30555556       0.12500000 </v>
   <v>       0.15909091      -0.30555556       0.12500000 </v>
   <v>       0.20454545      -0.30555556       0.12500000 </v>
   <v>       0.25000000      -0.30555556       0.12500000 </v>
   <v>       0.29545455      -0.30555556       0.12500000 </v>
   <v>       0.34090909      -0.30555556       0.12500000 </v>
   <v>       0.38636364      -0.30555556       0.12500000 </v>
   <v>       0.43181818      -0.30555556       0.12500000 </v>
   <v>       0.47727273      -0.30555556       0.12500000 </v>
   <v>      -0.47727273      -0.30555556       0.12500000 </v>
   <v>      -0.43181818      -0.30555556       0.12500000 </v>
   <v>      -0.38636364      -0.30555556       0.12500000 </v>
   <v>      -0.34090909      -0.30555556       0.12500000 </v>
   <v>      -0.29545455      -0.30555556       0.12500000 </v>
   <v>      -0.25000000      -0.30555556       0.12500000 </v>
   <v>      -0.20454545      -0.30555556       0.12500000 </v>
   <v>      -0.15909091      -0.30555556       0.12500000 </v>
   <v>      -0.11363636      -0.30555556       0.12500000 </v>
   <v>      -0.06818182      -0.30555556       0.12500000 </v>
   <v>      -0.02272727      -0.30555556       0.12500000 </v>
   <v>       0.02272727      -0.25000000       0.12500000 </v>
   <v>       0.06818182      -0.25000000       0.12500000 </v>
   <v>       0.11363636      -0.25000000       0.12500000 </v>
   <v>       0.15909091      -0.25000000       0.12500000 </v>
   <v>       0.20454545      -0.25000000       0.12500000 </v>
   <v>       0.25000000      -0.25000000       0.12500000 </v>
   <v>       0.29545455      -0.25000000       0.12500000 </v>
   <v>       0.34090909      -0.25000000       0.12500000 </v>
   <v>       0.38636364      -0.25000000       0.12500000 </v>
   <v>       0.43181818      -0.25000000       0.12500000 </v>
   <v>       0.47727273      -0.25000000       0.12500000 </v>
   <v>      -0.47727273      -0.25000000       0.12500000 </v>
   <v>      -0.43181818      -0.25000000       0.12500000 </v>
   <v>      -0.38636364      -0.25000000       0.12500000 </v>
   <v>      -0.34090909      -0.25000000       0.12500000 </v>
   <v>      -0.29545455      -0.25000000       0.12500000 </v>
   <v>      -0.25000000      -0.25000000       0.12500000 </v>
   <v>      -0.20454545      -0.25000000       0.12500000 </v>
   <v>      -0.15909091      -0.25000000       0.12500000 </v>
   <v>      -0.11363636      -0.25000000       0.12500000 </v>
   <v>      -0.06818182      -0.25000000       0.12500000 </v>
   <v>      -0.02272727      -0.25000000       0.12500000 </v>
   <v>       0.02272727      -0.19444444       0.12500000 </v>
   <v>       0.06818182      -0.19444444       0.12500000 </v>
   <v>       0.11363636      -0.19444444       0.12500000 </v>
   <v>       0.15909091      -0.19444444       0.12500000 </v>
   <v>       0.20454545      -0.19444444       0.12500000 </v>
   <v>       0.25000000      -0.19444444       0.12500000 </v>
   <v>       0.29545455      -0.19444444       0.12500000 </v>
   <v>       0.34090909      -0.19444444       0.12500000 </v>
   <v>       0.38636364      -0.19444444       0.12500000 </v>
   <v>       0.43181818      -0.19444444       0.12500000 </v>
   <v>       0.47727273      -0.19444444       0.12500000 </v>
   <v>      -0.47727273      -0.19444444       0.12500000 </v>
   <v>      -0.43181818      -0.19444444       0.12500000 </v>
   <v>      -0.38636364      -0.19444444       0.12500000 </v>
   <v>      -0.34090909      -0.19444444       0.12500000 </v>
   <v>      -0.29545455      -0.19444444       0.12500000 </v>
   <v>      -0.25000000      -0.19444444       0.12500000 </v>
   <v>      -0.20454545      -0.19444444       0.12500000 </v>
   <v>      -0.15909091      -0.19444444       0.12500000 </v>
   <v>      -0.11363636      -0.19444444       0.12500000 </v>
   <v>      -0.06818182      -0.19444444       0.12500000 </v>
   <v>      -0.02272727      -0.19444444       0.12500000 </v>
   <v>       0.02272727      -0.13888889       0.12500000 </v>
   <v>       0.06818182      -0.13888889       0.12500000 </v>
   <v>       0.11363636      -0.13888889       0.12500000 </v>
   <v>       0.15909091      -0.13888889       0.12500000 </v>
   <v>       0.20454545      -0.13888889       0.12500000 </v>
   <v>       0.25000000      -0.13888889       0.12500000 </v>
   <v>       0.29545455      -0.13888889       0.12500000 </v>
   <v>       0.34090909      -0.13888889       0.12500000 </v>
   <v>       0.38636364      -0.13888889       0.12500000 </v>
   <v>       0.43181818      -0.13888889       0.12500000 </v>
   <v>       0.47727273      -0.13888889       0.12500000 </v>
   <v>      -0.47727273      -0.13888889       0.12500000 </v>
   <v>      -0.43181818      -0.13888889       0.12500000 </v>
   <v>      -0.38636364      -0.13888889       0.12500000 </v>
   <v>      -0.34090909      -0.13888889       0.12500000 </v>
   <v>      -0.29545455      -0.13888889       0.12500000 </v>
   <v>      -0.25000000      -0.13888889       0.12500000 </v>
   <v>      -0.20454545      -0.13888889       0.12500000 </v>
   <v>      -0.15909091      -0.13888889       0.12500000 </v>
   <v>      -0.11363636      -0.13888889       0.12500000 </v>
   <v>      -0.06818182      -0.13888889       0.12500000 </v>
   <v>      -0.02272727      -0.13888889       0.12500000 </v>
   <v>       0.02272727      -0.08333333       0.12500000 </v>
   <v>       0.06818182      -0.08333333       0.12500000 </v>
   <v>       0.11363636      -0.08333333       0.12500000 </v>
   <v>       0.15909091      -0.08333333       0.12500000 </v>
   <v>       0.20454545      -0.08333333       0.12500000 </v>
   <v>       0.25000000      -0.08333333       0.12500000 </v>
   <v>       0.29545455      -0.08333333       0.12500000 </v>
   <v>       0.34090909      -0.08333333       0.12500000 </v>
   <v>       0.38636364      -0.08333333       0.12500000 </v>
   <v>       0.43181818      -0.08333333       0.12500000 </v>
   <v>       0.47727273      -0.08333333       0.12500000 </v>
   <v>      -0.47727273      -0.08333333       0.12500000 </v>
   <v>      -0.43181818      -0.08333333       0.12500000 </v>
   <v>      -0.38636364      -0.08333333       0.12500000 </v>
   <v>      -0.34090909      -0.08333333       0.12500000 </v>
   <v>      -0.29545455      -0.08333333       0.12500000 </v>
   <v>      -0.25000000      -0.08333333       0.12500000 </v>
   <v>      -0.20454545      -0.08333333       0.12500000 </v>
   <v>      -0.15909091      -0.08333333       0.12500000 </v>
   <v>      -0.11363636      -0.08333333       0.12500000 </v>
   <v>      -0.06818182      -0.08333333       0.12500000 </v>
   <v>      -0.02272727      -0.08333333       0.12500000 </v>
   <v>       0.02272727      -0.02777778       0.12500000 </v>
   <v>       0.06818182      -0.02777778       0.12500000 </v>
   <v>       0.11363636      -0.02777778       0.12500000 </v>
   <v>       0.15909091      -0.02777778       0.12500000 </v>
   <v>       0.20454545      -0.02777778       0.12500000 </v>
   <v>       0.25000000      -0.02777778       0.12500000 </v>
   <v>       0.29545455      -0.02777778       0.12500000 </v>
   <v>       0.34090909      -0.02777778       0.12500000 </v>
   <v>       0.38636364      -0.02777778       0.12500000 </v>
   <v>       0.43181818      -0.02777778       0.12500000 </v>
   <v>       0.47727273      -0.02777778       0.12500000 </v>
   <v>      -0.47727273      -0.02777778       0.12500000 </v>
   <v>      -0.43181818      -0.02777778       0.12500000 </v>
   <v>      -0.38636364      -0.02777778       0.12500000 </v>
   <v>      -0.34090909      -0.02777778       0.12500000 </v>
   <v>      -0.29545455      -0.02777778       0.12500000 </v>
   <v>      -0.25000000      -0.02777778       0.12500000 </v>
   <v>      -0.20454545      -0.02777778       0.12500000 </v>
   <v>      -0.15909091      -0.02777778       0.12500000 </v>
   <v>      -0.11363636      -0.02777778       0.12500000 </v>
   <v>      -0.06818182      -0.02777778       0.12500000 </v>
   <v>      -0.02272727      -0.02777778       0.12500000 </v>
   <v>       0.02272727       0.02777778       0.37500000 </v>
   <v>       0.06818182       0.02777778       0.37500000 </v>
   <v>       0.11363636       0.02777778       0.37500000 </v>
   <v>       0.15909091       0.02777778       0.37500000 </v>
   <v>       0.20454545       0.02777778       0.37500000 </v>
   <v>       0.25000000       0.02777778       0.37500000 </v>
   <v>       0.29545455       0.02777778       0.37500000 </v>
   <v>       0.34090909       0.02777778       0.37500000 </v>
   <v>       0.38636364       0.02777778       0.37500000 </v>
   <v>       0.43181818       0.02777778       0.37500000 </v>
   <v>       0.47727273       0.02777778       0.37500000 </v>
   <v>      -0.47727273       0.02777778       0.37500000 </v>
   <v>      -0.43181818       0.02777778       0.37500000 </v>
   <v>      -0.38636364       0.02777778       0.37500000 </v>
   <v>      -0.34090909       0.02777778       0.37500000 </v>
   <v>      -0.29545455       0.02777778       0.37500000 </v>
   <v>      -0.25000000       0.02777778       0.37500000 </v>
   <v>      -0.20454545       0.02777778       0.37500000 </v>
   <v>      -0.15909091       0.02777778       0.37500000 </v>
   <v>      -0.11363636       0.02777778       0.37500000 </v>
   <v>      -0.06818182       0.02777778       0.37500000 </v>
   <v>      -0.02272727       0.02777778       0.37500000 </v>
   <v>       0.02272727       0.08333333       0.37500000 </v>
   <v>       0.06818182       0.08333333       0.37500000 </v>
   <v>       0.11363636       0.08333333       0.37500000 </v>
   <v>       0.15909091       0.08333333       0.37500000 </v>
   <v>       0.20454545       0.08333333       0.37500000 </v>
   <v>       0.25000000       0.08333333       0.37500000 </v>
   <v>       0.29545455       0.08333333       0.37500000 </v>
   <v>       0.34090909       0.08333333       0.37500000 </v>
   <v>       0.38636364       0.08333333       0.37500000 </v>
   <v>       0.43181818       0.08333333       0.37500000 </v>
   <v>       0.47727273       0.08333333       0.37500000 </v>
   <v>      -0.47727273       0.08333333       0.37500000 </v>
   <v>      -0.43181818       0.08333333       0.37500000 </v>
   <v>      -0.38636364       0.08333333       0.37500000 </v>
   <v>      -0.34090909       0.08333333       0.37500000 </v>
   <v>      -0.29545455       0.08333333       0.37500000 </v>
   <v>      -0.25000000       0.08333333       0.37500000 </v>
   <v>      -0.20454545       0.08333333       0.37500000 </v>
   <v>      -0.15909091       0.08333333       0.37500000 </v>
   <v>      -0.11363636       0.08333333       0.37500000 </v>
   <v>      -0.06818182       0.08333333       0.37500000 </v>
   <v>      -0.02272727       0.08333333       0.37500000 </v>
   <v>       0.02272727       0.13888889       0.37500000 </v>
   <v>       0.06818182       0.13888889       0.37500000 </v>
   <v>       0.11363636       0.13888889       0.37500000 </v>
   <v>       0.15909091       0.13888889       0.37500000 </v>
   <v>       0.20454545       0.13888889       0.37500000 </v>
   <v>       0.25000000       0.13888889       0.37500000 </v>
   <v>       0.29545455       0.13888889       0.37500000 </v>
   <v>       0.34090909       0.13888889       0.37500000 </v>
   <v>       0.38636364       0.13888889       0.37500000 </v>
   <v>       0.43181818       0.13888889       0.37500000 </v>
   <v>       0.47727273       0.13888889       0.37500000 </v>
   <v>      -0.47727273       0.13888889       0.37500000 </v>
   <v>      -0.43181818       0.13888889       0.37500000 </v>
   <v>      -0.38636364       0.13888889       0.37500000 </v>
   <v>      -0.34090909       0.13888889       0.37500000 </v>
   <v>      -0.29545455       0.13888889       0.37500000 </v>
   <v>      -0.25000000       0.13888889       0.37500000 </v>
   <v>      -0.20454545       0.13888889       0.37500000 </v>
   <v>      -0.15909091       0.13888889       0.37500000 </v>
   <v>      -0.11363636       0.13888889       0.37500000 </v>
   <v>      -0.06818182       0.13888889       0.37500000 </v>
   <v>      -0.02272727       0.13888889       0.37500000 </v>
   <v>       0.02272727       0.19444444       0.37500000 </v>
   <v>       0.06818182       0.19444444       0.37500000 </v>
   <v>       0.11363636       0.19444444       0.37500000 </v>
   <v>       0.15909091       0.19444444       0.37500000 </v>
   <v>       0.20454545       0.19444444       0.37500000 </v>
   <v>       0.25000000       0.19444444       0.37500000 </v>
   <v>       0.29545455       0.19444444       0.37500000 </v>
   <v>       0.34090909       0.19444444       0.37500000 </v>
   <v>       0.38636364       0.19444444       0.37500000 </v>
   <v>       0.43181818       0.19444444       0.37500000 </v>
   <v>       0.47727273       0.19444444       0.37500000 </v>
   <v>      -0.47727273       0.19444444       0.37500000 </v>
   <v>      -0.43181818       0.19444444       0.37500000 </v>
   <v>      -0.38636364       0.19444444       0.37500000 </v>
   <v>      -0.34090909       0.19444444       0.37500000 </v>
   <v>      -0.29545455       0.19444444       0.37500000 </v>
   <v>      -0.25000000       0.19444444       0.37500000 </v>
   <v>      -0.20454545       0.19444444       0.37500000 </v>
   <v>      -0.15909091       0.19444444       0.37500000 </v>
   <v>      -0.11363636       0.19444444       0.37500000 </v>
   <v>      -0.06818182       0.19444444       0.37500000 </v>
   <v>      -0.02272727       0.19444444       0.37500000 </v>
   <v>       0.02272727       0.25000000       0.37500000 </v>
   <v>       0.06818182       0.25000000       0.37500000 </v>
   <v>       0.11363636       0.25000000       0.37500000 </v>
   <v>       0.15909091       0.25000000       0.37500000 </v>
   <v>       0.20454545       0.25000000       0.37500000 </v>
   <v>       0.25000000       0.25000000       0.37500000 </v>
   <v>       0.29545455       0.25000000       0.37500000 </v>
   <v>       0.34090909       0.25000000       0.37500000 </v>
   <v>       0.38636364       0.25000000       0.37500000 </v>
   <v>       0.43181818       0.25000000       0.37500000 </v>
   <v>       0.47727273       0.25000000       0.37500000 </v>
   <v>      -0.47727273       0.25000000       0.37500000 </v>
   <v>      -0.43181818       0.25000000       0.37500000 </v>
   <v>      -0.38636364       0.25000000       0.37500000 </v>
   <v>      -0.34090909       0.25000000       0.37500000 </v>
   <v>      -0.29545455       0.25000000       0.37500000 </v>
   <v>      -0.25000000       0.25000000       0.37500000 </v>
   <v>      -0.20454545       0.25000000       0.37500000 </v>
   <v>      -0.15909091       0.25000000       0.37500000 </v>
   <v>      -0.11363636       0.25000000       0.37500000 </v>
   <v>      -0.06818182       0.25000000       0.37500000 </v>
   <v>      -0.02272727       0.25000000       0.37500000 </v>
   <v>       0.02272727       0.30555556       0.37500000 </v>
   <v>       0.06818182       0.30555556       0.37500000 </v>
   <v>       0.11363636       0.30555556       0.37500000 </v>
   <v>       0.15909091       0.30555556       0.37500000 </v>
   <v>       0.20454545       0.30555556       0.37500000 </v>
   <v>       0.25000000       0.30555556       0.37500000 </v>
   <v>       0.29545455       0.30555556       0.37500000 </v>
   <v>       0.34090909       0.30555556       0.37500000 </v>
   <v>       0.38636364       0.30555556       0.37500000 </v>
   <v>       0.43181818       0.30555556       0.37500000 </v>
   <v>       0.47727273       0.30555556       0.37500000 </v>
   <v>      -0.47727273       0.30555556       0.37500000 </v>
   <v>      -0.43181818       0.30555556       0.37500000 </v>
   <v>      -0.38636364       0.30555556       0.37500000 </v>
   <v>      -0.34090909       0.30555556       0.37500000 </v>
   <v>      -0.29545455       0.30555556       0.37500000 </v>
   <v>      -0.25000000       0.30555556       0.37500000 </v>
   <v>      -0.20454545       0.30555556       0.37500000 </v>
   <v>      -0.15909091       0.30555556       0.37500000 </v>
   <v>      -0.11363636       0.30555556       0.37500000 </v>
   <v>      -0.06818182       0.30555556       0.37500000 </v>
   <v>      -0.02272727       0.30555556       0.37500000 </v>
   <v>       0.02272727       0.36111111       0.37500000 </v>
   <v>       0.06818182       0.36111111       0.37500000 </v>
   <v>       0.11363636       0.36111111       0.37500000 </v>
   <v>       0.15909091       0.36111111       0.37500000 </v>
   <v>       0.20454545       0.36111111       0.37500000 </v>
   <v>       0.25000000       0.36111111       0.37500000 </v>
   <v>       0.29545455       0.36111111       0.37500000 </v>
   <v>       0.34090909       0.36111111       0.37500000 </v>
   <v>       0.38636364       0.36111111       0.37500000 </v>
   <v>       0.43181818       0.36111111       0.37500000 </v>
   <v>       0.47727273       0.36111111       0.37500000 </v>
   <v>      -0.47727273       0.36111111       0.37500000 </v>
   <v>      -0.43181818       0.36111111       0.37500000 </v>
   <v>      -0.38636364       0.36111111       0.37500000 </v>
   <v>      -0.34090909       0.36111111       0.37500000 </v>
   <v>      -0.29545455       0.36111111       0.37500000 </v>
   <v>      -0.25000000       0.36111111       0.37500000 </v>
   <v>      -0.20454545       0.36111111       0.37500000 </v>
   <v>      -0.15909091       0.36111111       0.37500000 </v>
   <v>      -0.11363636       0.36111111       0.37500000 </v>
   <v>      -0.06818182       0.36111111       0.37500000 </v>
   <v>      -0.02272727       0.36111111       0.37500000 </v>
   <v>       0.02272727       0.41666667       0.37500000 </v>
   <v>       0.06818182       0.41666667       0.37500000 </v>
   <v>       0.11363636       0.41666667       0.37500000 </v>
   <v>       0.15909091       0.41666667       0.37500000 </v>
   <v>       0.20454545       0.41666667       0.37500000 </v>
   <v>       0.25000000       0.41666667       0.37500000 </v>
   <v>       0.29545455       0.41666667       0.37500000 </v>
   <v>       0.34090909       0.41666667       0.37500000 </v>
   <v>       0.38636364       0.41666667       0.37500000 </v>
   <v>       0.43181818       0.41666667       0.37500000 </v>
   <v>       0.47727273       0.41666667       0.37500000 </v>
   <v>      -0.47727273       0.41666667       0.37500000 </v>
   <v>      -0.43181818       0.41666667       0.37500000 </v>
   <v>      -0.38636364       0.41666667       0.37500000 </v>
   <v>      -0.34090909       0.41666667       0.37500000 </v>
   <v>      -0.29545455       0.41666667       0.37500000 </v>
   <v>      -0.25000000       0.41666667       0.37500000 </v>
   <v>      -0.20454545       0.41666667       0.37500000 </v>
   <v>      -0.15909091       0.41666667       0.37500000 </v>
   <v>      -0.11363636       0.41666667       0.37500000 </v>
   <v>      -0.06818182       0.41666667       0.37500000 </v>
   <v>      -0.02272727       0.41666667       0.37500000 </v>
   <v>       0.02272727       0.47222222       0.37500000 </v>
   <v>       0.06818182       0.47222222       0.37500000 </v>
   <v>       0.11363636       0.47222222       0.37500000 </v>
   <v>       0.15909091       0.47222222       0.37500000 </v>
   <v>       0.20454545       0.47222222       0.37500000 </v>
   <v>       0.25000000       0.47222222       0.37500000 </v>
   <v>       0.29545455       0.47222222       0.37500000 </v>
   <v>       0.34090909       0.47222222       0.37500000 </v>
   <v>       0.38636364       0.47222222       0.37500000 </v>
   <v>       0.43181818       0.47222222       0.37500000 </v>
   <v>       0.47727273       0.47222222       0.37500000 </v>
   <v>      -0.47727273       0.47222222       0.37500000 </v>
   <v>      -0.43181818       0.47222222       0.37500000 </v>
   <v>      -0.38636364       0.47222222       0.37500000 </v>
   <v>      -0.34090909       0.47222222       0.37500000 </v>
   <v>      -0.29545455       0.47222222       0.37500000 </v>
   <v>      -0.25000000       0.47222222       0.37500000 </v>
   <v>      -0.20454545       0.47222222       0.37500000 </v>
   <v>      -0.15909091       0.47222222       0.37500000 </v>
   <v>      -0.11363636       0.47222222       0.37500000 </v>
   <v>      -0.06818182       0.47222222       0.37500000 </v>
   <v>      -0.02272727       0.47222222       0.37500000 </v>
   <v>       0.02272727      -0.47222222       0.37500000 </v>
   <v>       0.06818182      -0.47222222       0.37500000 </v>
   <v>       0.11363636      -0.47222222       0.37500000 </v>
   <v>       0.15909091      -0.47222222       0.37500000 </v>
   <v>       0.20454545      -0.47222222       0.37500000 </v>
   <v>       0.25000000      -0.47222222       0.37500000 </v>
   <v>       0.29545455      -0.47222222       0.37500000 </v>
   <v>       0.34090909      -0.47222222       0.37500000 </v>
   <v>       0.38636364      -0.47222222       0.37500000 </v>
   <v>       0.43181818      -0.47222222       0.37500000 </v>
   <v>       0.47727273      -0.47222222       0.37500000 </v>
   <v>      -0.47727273      -0.47222222       0.37500000 </v>
   <v>      -0.43181818      -0.47222222       0.37500000 </v>
   <v>      -0.38636364      -0.47222222       0.37500000 </v>
   <v>      -0.34090909      -0.47222222       0.37500000 </v>
   <v>      -0.29545455      -0.47222222       0.37500000 </v>
   <v>      -0.25000000      -0.47222222       0.37500000 </v>
   <v>      -0.20454545      -0.47222222       0.37500000 </v>
   <v>      -0.15909091      -0.47222222       0.37500000 </v>
   <v>      -0.11363636      -0.47222222       0.37500000 </v>
   <v>      -0.06818182      -0.47222222       0.37500000 </v>
   <v>      -0.02272727      -0.47222222       0.37500000 </v>
   <v>       0.02272727      -0.41666667       0.37500000 </v>
   <v>       0.06818182      -0.41666667       0.37500000 </v>
   <v>       0.11363636      -0.41666667       0.37500000 </v>
   <v>       0.15909091      -0.41666667       0.37500000 </v>
   <v>       0.20454545      -0.41666667       0.37500000 </v>
   <v>       0.25000000      -0.41666667       0.37500000 </v>
   <v>       0.29545455      -0.41666667       0.37500000 </v>
   <v>       0.34090909      -0.41666667       0.37500000 </v>
   <v>       0.38636364      -0.41666667       0.37500000 </v>
   <v>       0.43181818      -0.41666667       0.37500000 </v>
   <v>       0.47727273      -0.41666667       0.37500000 </v>
   <v>      -0.47727273      -0.41666667       0.37500000 </v>
   <v>      -0.43181818      -0.41666667       0.37500000 </v>
   <v>      -0.38636364      -0.41666667       0.37500000 </v>
   <v>      -0.34090909      -0.41666667       0.37500000 </v>
   <v>      -0.29545455      -0.41666667       0.37500000 </v>
   <v>      -0.25000000      -0.41666667       0.37500000 </v>
   <v>      -0.20454545      -0.41666667       0.37500000 </v>
   <v>      -0.15909091      -0.41666667       0.37500000 </v>
   <v>      -0.11363636      -0.41666667       0.37500000 </v>
   <v>      -0.06818182      -0.41666667       0.37500000 </v>
   <v>      -0.02272727      -0.41666667       0.37500000 </v>
   <v>       0.02272727      -0.36111111       0.37500000 </v>
   <v>       0.06818182      -0.36111111       0.37500000 </v>
   <v>       0.11363636      -0.36111111       0.37500000 </v>
   <v>       0.15909091      -0.36111111       0.37500000 </v>
   <v>       0.20454545      -0.36111111       0.37500000 </v>
   <v>       0.25000000      -0.36111111       0.37500000 </v>
   <v>       0.29545455      -0.36111111       0.37500000 </v>
   <v>       0.34090909      -0.36111111       0.37500000 </v>
   <v>       0.38636364      -0.36111111       0.37500000 </v>
   <v>       0.43181818      -0.36111111       0.37500000 </v>
   <v>       0.47727273      -0.36111111       0.37500000 </v>
   <v>      -0.47727273      -0.36111111       0.37500000 </v>
   <v>      -0.43181818      -0.36111111       0.37500000 </v>
   <v>      -0.38636364      -0.36111111       0.37500000 </v>
   <v>      -0.34090909      -0.36111111       0.37500000 </v>
   <v>      -0.29545455      -0.36111111       0.37500000 </v>
   <v>      -0.25000000      -0.36111111       0.37500000 </v>
   <v>      -0.20454545      -0.36111111       0.37500000 </v>
   <v>      -0.15909091      -0.36111111       0.37500000 </v>
   <v>      -0.11363636      -0.36111111       0.37500000 </v>
   <v>      -0.06818182      -0.36111111       0.37500000 </v>
   <v>      -0.02272727      -0.36111111       0.37500000 </v>
   <v>       0.02272727      -0.30555556       0.37500000 </v>
   <v>       0.06818182      -0.30555556       0.37500000 </v>
   <v>       0.11363636      -0.30555556       0.37500000 </v>
   <v>       0.15909091      -0.30555556       0.37500000 </v>
   <v>       0.20454545      -0.30555556       0.37500000 </v>
   <v>       0.25000000      -0.30555556       0.37500000 </v>
   <v>       0.29545455      -0.30555556       0.37500000 </v>
   <v>       0.34090909      -0.30555556       0.37500000 </v>
   <v>       0.38636364      -0.30555556       0.37500000 </v>
   <v>       0.43181818      -0.30555556       0.37500000 </v>
   <v>       0.47727273      -0.30555556       0.37500000 </v>
   <v>      -0.47727273      -0.30555556       0.37500000 </v>
   <v>      -0.43181818      -0.30555556       0.37500000 </v>
   <v>      -0.38636364      -0.30555556       0.37500000 </v>
   <v>      -0.34090909      -0.30555556       0.37500000 </v>
   <v>      -0.29545455      -0.30555556       0.37500000 </v>
   <v>      -0.25000000      -0.30555556       0.37500000 </v>
   <v>      -0.20454545      -0.30555556       0.37500000 </v>
   <v>      -0.15909091      -0.30555556       0.37500000 </v>
   <v>      -0.11363636      -0.30555556       0.37500000 </v>
   <v>      -0.06818182      -0.30555556       0.37500000 </v>
   <v>      -0.02272727      -0.30555556       0.37500000 </v>
   <v>       0.02272727      -0.25000000       0.37500000 </v>
   <v>       0.06818182      -0.25000000       0.37500000 </v>
   <v>       0.11363636      -0.25000000       0.37500000 </v>
   <v>       0.15909091      -0.25000000       0.37500000 </v>
   <v>       0.20454545      -0.25000000       0.37500000 </v>
   <v>       0.25000000      -0.25000000       0.37500000 </v>
   <v>       0.29545455      -0.25000000       0.37500000 </v>
   <v>       0.34090909      -0.25000000       0.37500000 </v>
   <v>       0.38636364      -0.25000000       0.37500000 </v>
   <v>       0.43181818      -0.25000000       0.37500000 </v>
   <v>       0.47727273      -0.25000000       0.37500000 </v>
   <v>      -0.47727273      -0.25000000       0.37500000 </v>
   <v>      -0.43181818      -0.25000000       0.37500000 </v>
   <v>      -0.38636364      -0.25000000       0.37500000 </v>
   <v>      -0.34090909      -0.25000000       0.37500000 </v>
   <v>      -0.29545455      -0.25000000       0.37500000 </v>
   <v>      -0.25000000      -0.25000000       0.37500000 </v>
   <v>      -0.20454545      -0.25000000       0.37500000 </v>
   <v>      -0.15909091      -0.25000000       0.37500000 </v>
   <v>      -0.11363636      -0.25000000       0.37500000 </v>
   <v>      -0.06818182      -0.25000000       0.37500000 </v>
   <v>      -0.02272727      -0.25000000       0.37500000 </v>
   <v>       0.02272727      -0.19444444       0.37500000 </v>
   <v>       0.06818182      -0.19444444       0.37500000 </v>
   <v>       0.11363636      -0.19444444       0.37500000 </v>
   <v>       0.15909091      -0.19444444       0.37500000 </v>
   <v>       0.20454545      -0.19444444       0.37500000 </v>
   <v>       0.25000000      -0.19444444       0.37500000 </v>
   <v>       0.29545455      -0.19444444       0.37500000 </v>
   <v>       0.34090909      -0.19444444       0.37500000 </v>
   <v>       0.38636364      -0.19444444       0.37500000 </v>
   <v>       0.43181818      -0.19444444       0.37500000 </v>
   <v>       0.47727273      -0.19444444       0.37500000 </v>
   <v>      -0.47727273      -0.19444444       0.37500000 </v>
   <v>      -0.43181818      -0.19444444       0.37500000 </v>
   <v>      -0.38636364      -0.19444444       0.37500000 </v>
   <v>      -0.34090909      -0.19444444       0.37500000 </v>
   <v>      -0.29545455      -0.19444444       0.37500000 </v>
   <v>      -0.25000000      -0.19444444       0.37500000 </v>
   <v>      -0.20454545      -0.19444444       0.37500000 </v>
   <v>      -0.15909091      -0.19444444       0.37500000 </v>
   <v>      -0.11363636      -0.19444444       0.37500000 </v>
   <v>      -0.06818182      -0.19444444       0.37500000 </v>
   <v>      -0.02272727      -0.19444444       0.37500000 </v>
   <v>       0.02272727      -0.13888889       0.37500000 </v>
   <v>       0.06818182      -0.13888889       0.37500000 </v>
   <v>       0.11363636      -0.13888889       0.37500000 </v>
   <v>       0.15909091      -0.13888889       0.37500000 </v>
   <v>       0.20454545      -0.13888889       0.37500000 </v>
   <v>       0.25000000      -0.13888889       0.37500000 </v>
   <v>       0.29545455      -0.13888889       0.37500000 </v>
   <v>       0.34090909      -0.13888889       0.37500000 </v>
   <v>       0.38636364      -0.13888889       0.37500000 </v>
   <v>       0.43181818      -0.13888889       0.37500000 </v>
   <v>       0.47727273      -0.13888889       0.37500000 </v>
   <v>      -0.47727273      -0.13888889       0.37500000 </v>
   <v>      -0.43181818      -0.13888889       0.37500000 </v>
   <v>      -0.38636364      -0.13888889       0.37500000 </v>
   <v>      -0.34090909      -0.13888889       0.37500000 </v>
   <v>      -0.29545455      -0.13888889       0.37500000 </v>
   <v>      -0.25000000      -0.13888889       0.37500000 </v>
   <v>      -0.20454545      -0.13888889       0.37500000 </v>
   <v>      -0.15909091      -0.13888889       0.37500000 </v>
   <v>      -0.11363636      -0.13888889       0.37500000 </v>
   <v>      -0.06818182      -0.13888889       0.37500000 </v>
   <v>      -0.02272727      -0.13888889       0.37500000 </v>
   <v>       0.02272727      -0.08333333       0.37500000 </v>
   <v>       0.06818182      -0.08333333       0.37500000 </v>
   <v>       0.11363636      -0.08333333       0.37500000 </v>
   <v>       0.15909091      -0.08333333       0.37500000 </v>
   <v>       0.20454545      -0.08333333       0.37500000 </v>
   <v>       0.25000000      -0.08333333       0.37500000 </v>
   <v>       0.29545455      -0.08333333       0.37500000 </v>
   <v>       0.34090909      -0.08333333       0.37500000 </v>
   <v>       0.38636364      -0.08333333       0.37500000 </v>
   <v>       0.43181818      -0.08333333       0.37500000 </v>
   <v>       0.47727273      -0.08333333       0.37500000 </v>
   <v>      -0.47727273      -0.08333333       0.37500000 </v>
   <v>      -0.43181818      -0.08333333       0.37500000 </v>
   <v>      -0.38636364      -0.08333333       0.37500000 </v>
   <v>      -0.34090909      -0.08333333       0.37500000 </v>
   <v>      -0.29545455      -0.08333333       0.37500000 </v>
   <v>      -0.25000000      -0.08333333       0.37500000 </v>
   <v>      -0.20454545      -0.08333333       0.37500000 </v>
   <v>      -0.15909091      -0.08333333       0.37500000 </v>
   <v>      -0.11363636      -0.08333333       0.37500000 </v>
   <v>      -0.06818182      -0.08333333       0.37500000 </v>
   <v>      -0.02272727      -0.08333333       0.37500000 </v>
   <v>       0.02272727      -0.02777778       0.37500000 </v>
   <v>       0.06818182      -0.02777778       0.37500000 </v>
   <v>       0.11363636      -0.02777778       0.37500000 </v>
   <v>       0.15909091      -0.02777778       0.37500000 </v>
   <v>       0.20454545      -0.02777778       0.37500000 </v>
   <v>       0.25000000      -0.02777778       0.37500000 </v>
   <v>       0.29545455      -0.02777778       0.37500000 </v>
   <v>       0.34090909      -0.02777778       0.37500000 </v>
   <v>       0.38636364      -0.02777778       0.37500000 </v>
   <v>       0.43181818      -0.02777778       0.37500000 </v>
   <v>       0.47727273      -0.02777778       0.37500000 </v>
   <v>      -0.47727273      -0.02777778       0.37500000 </v>
   <v>      -0.43181818      -0.02777778       0.37500000 </v>
   <v>      -0.38636364      -0.02777778       0.37500000 </v>
   <v>      -0.34090909      -0.02777778       0.37500000 </v>
   <v>      -0.29545455      -0.02777778       0.37500000 </v>
   <v>      -0.25000000      -0.02777778       0.37500000 </v>
   <v>      -0.20454545      -0.02777778       0.37500000 </v>
   <v>      -0.15909091      -0.02777778       0.37500000 </v>
   <v>      -0.11363636      -0.02777778       0.37500000 </v>
   <v>      -0.06818182      -0.02777778       0.37500000 </v>
   <v>      -0.02272727      -0.02777778       0.37500000 </v>
  </varray>
  <varray name="weights" >
   <v>       0.00126263 </v>
   <v>       0.00126263 </v>
   <v>       0.00126263 </v>
   <v>       0.00126263 </v>
   <v>       0.00126263 </v>
   <v>       0.00126263 </v>
   <v>       0.00126263 </v>
   <v>       0.00126263 </v>
   <v>       0.00126263 </v>
   <v>       0.00126263 </v>
   <v>       0.00126263 </v>
   <v>       0.00126263 </v>
   <v>       0.00126263 </v>
   <v>       0.00126263 </v>
   <v>       0.00126263 </v>
   <v>       0.00126263 </v>
   <v>       0.00126263 </v>
   <v>       0.00126263 </v>
   <v>       0.00126263 </v>
   <v>       0.00126263 </v>
   <v>       0.00126263 </v>
   <v>       0.00126263 </v>
   <v>       0.00126263 </v>
   <v>       0.00126263 </v>
   <v>       0.00126263 </v>
   <v>       0.00126263 </v>
   <v>       0.00126263 </v>
   <v>       0.00126263 </v>
   <v>       0.00126263 </v>
   <v>       0.00126263 </v>
   <v>       0.00126263 </v>
   <v>       0.00126263 </v>
   <v>       0.00126263 </v>
   <v>       0.00126263 </v>
   <v>       0.00126263 </v>
   <v>       0.00126263 </v>
   <v>       0.00126263 </v>
   <v>       0.00126263 </v>
   <v>       0.00126263 </v>
   <v>       0.00126263 </v>
   <v>       0.00126263 </v>
   <v>       0.00126263 </v>
   <v>       0.00126263 </v>
   <v>       0.00126263 </v>
   <v>       0.00126263 </v>
   <v>       0.00126263 </v>
   <v>       0.00126263 </v>
   <v>       0.00126263 </v>
   <v>       0.00126263 </v>
   <v>       0.00126263 </v>
   <v>       0.00126263 </v>
   <v>       0.00126263 </v>
   <v>       0.00126263 </v>
   <v>       0.00126263 </v>
   <v>       0.00126263 </v>
   <v>       0.00126263 </v>
   <v>       0.00126263 </v>
   <v>       0.00126263 </v>
   <v>       0.00126263 </v>
   <v>       0.00126263 </v>
   <v>       0.00126263 </v>
   <v>       0.00126263 </v>
   <v>       0.00126263 </v>
   <v>       0.00126263 </v>
   <v>       0.00126263 </v>
   <v>       0.00126263 </v>
   <v>       0.00126263 </v>
   <v>       0.00126263 </v>
   <v>       0.00126263 </v>
   <v>       0.00126263 </v>
   <v>       0.00126263 </v>
   <v>       0.00126263 </v>
   <v>       0.00126263 </v>
   <v>       0.00126263 </v>
   <v>       0.00126263 </v>
   <v>       0.00126263 </v>
   <v>       0.00126263 </v>
   <v>       0.00126263 </v>
   <v>       0.00126263 </v>
   <v>       0.00126263 </v>
   <v>       0.00126263 </v>
   <v>       0.00126263 </v>
   <v>       0.00126263 </v>
   <v>       0.00126263 </v>
   <v>       0.00126263 </v>
   <v>       0.00126263 </v>
   <v>       0.00126263 </v>
   <v>       0.00126263 </v>
   <v>       0.00126263 </v>
   <v>       0.00126263 </v>
   <v>       0.00126263 </v>
   <v>       0.00126263 </v>
   <v>       0.00126263 </v>
   <v>       0.00126263 </v>
   <v>       0.00126263 </v>
   <v>       0.00126263 </v>
   <v>       0.00126263 </v>
   <v>       0.00126263 </v>
   <v>       0.00126263 </v>
   <v>       0.00126263 </v>
   <v>       0.00126263 </v>
   <v>       0.00126263 </v>
   <v>       0.00126263 </v>
   <v>       0.00126263 </v>
   <v>       0.00126263 </v>
   <v>       0.00126263 </v>
   <v>       0.00126263 </v>
   <v>       0.00126263 </v>
   <v>       0.00126263 </v>
   <v>       0.00126263 </v>
   <v>       0.00126263 </v>
   <v>       0.00126263 </v>
   <v>       0.00126263 </v>
   <v>       0.00126263 </v>
   <v>       0.00126263 </v>
   <v>       0.00126263 </v>
   <v>       0.00126263 </v>
   <v>       0.00126263 </v>
   <v>       0.00126263 </v>
   <v>       0.00126263 </v>
   <v>       0.00126263 </v>
   <v>       0.00126263 </v>
   <v>       0.00126263 </v>
   <v>       0.00126263 </v>
   <v>       0.00126263 </v>
   <v>       0.00126263 </v>
   <v>       0.00126263 </v>
   <v>       0.00126263 </v>
   <v>       0.00126263 </v>
   <v>       0.00126263 </v>
   <v>       0.00126263 </v>
   <v>       0.00126263 </v>
   <v>       0.00126263 </v>
   <v>       0.00126263 </v>
   <v>       0.00126263 </v>
   <v>       0.00126263 </v>
   <v>       0.00126263 </v>
   <v>       0.00126263 </v>
   <v>       0.00126263 </v>
   <v>       0.00126263 </v>
   <v>       0.00126263 </v>
   <v>       0.00126263 </v>
   <v>       0.00126263 </v>
   <v>       0.00126263 </v>
   <v>       0.00126263 </v>
   <v>       0.00126263 </v>
   <v>       0.00126263 </v>
   <v>       0.00126263 </v>
   <v>       0.00126263 </v>
   <v>       0.00126263 </v>
   <v>       0.00126263 </v>
   <v>       0.00126263 </v>
   <v>       0.00126263 </v>
   <v>       0.00126263 </v>
   <v>       0.00126263 </v>
   <v>       0.00126263 </v>
   <v>       0.00126263 </v>
   <v>       0.00126263 </v>
   <v>       0.00126263 </v>
   <v>       0.00126263 </v>
   <v>       0.00126263 </v>
   <v>       0.00126263 </v>
   <v>       0.00126263 </v>
   <v>       0.00126263 </v>
   <v>       0.00126263 </v>
   <v>       0.00126263 </v>
   <v>       0.00126263 </v>
   <v>       0.00126263 </v>
   <v>       0.00126263 </v>
   <v>       0.00126263 </v>
   <v>       0.00126263 </v>
   <v>       0.00126263 </v>
   <v>       0.00126263 </v>
   <v>       0.00126263 </v>
   <v>       0.00126263 </v>
   <v>       0.00126263 </v>
   <v>       0.00126263 </v>
   <v>       0.00126263 </v>
   <v>       0.00126263 </v>
   <v>       0.00126263 </v>
   <v>       0.00126263 </v>
   <v>       0.00126263 </v>
   <v>       0.00126263 </v>
   <v>       0.00126263 </v>
   <v>       0.00126263 </v>
   <v>       0.00126263 </v>
   <v>       0.00126263 </v>
   <v>       0.00126263 </v>
   <v>       0.00126263 </v>
   <v>       0.00126263 </v>
   <v>       0.00126263 </v>
   <v>       0.00126263 </v>
   <v>       0.00126263 </v>
   <v>       0.00126263 </v>
   <v>       0.00126263 </v>
   <v>       0.00126263 </v>
   <v>       0.00126263 </v>
   <v>       0.00126263 </v>
   <v>       0.00126263 </v>
   <v>       0.00126263 </v>
   <v>       0.00126263 </v>
   <v>       0.00126263 </v>
   <v>       0.00126263 </v>
   <v>       0.00126263 </v>
   <v>       0.00126263 </v>
   <v>       0.00126263 </v>
   <v>       0.00126263 </v>
   <v>       0.00126263 </v>
   <v>       0.00126263 </v>
   <v>       0.00126263 </v>
   <v>       0.00126263 </v>
   <v>       0.00126263 </v>
   <v>       0.00126263 </v>
   <v>       0.00126263 </v>
   <v>       0.00126263 </v>
   <v>       0.00126263 </v>
   <v>       0.00126263 </v>
   <v>       0.00126263 </v>
   <v>       0.00126263 </v>
   <v>       0.00126263 </v>
   <v>       0.00126263 </v>
   <v>       0.00126263 </v>
   <v>       0.00126263 </v>
   <v>       0.00126263 </v>
   <v>       0.00126263 </v>
   <v>       0.00126263 </v>
   <v>       0.00126263 </v>
   <v>       0.00126263 </v>
   <v>       0.00126263 </v>
   <v>       0.00126263 </v>
   <v>       0.00126263 </v>
   <v>       0.00126263 </v>
   <v>       0.00126263 </v>
   <v>       0.00126263 </v>
   <v>       0.00126263 </v>
   <v>       0.00126263 </v>
   <v>       0.00126263 </v>
   <v>       0.00126263 </v>
   <v>       0.00126263 </v>
   <v>       0.00126263 </v>
   <v>       0.00126263 </v>
   <v>       0.00126263 </v>
   <v>       0.00126263 </v>
   <v>       0.00126263 </v>
   <v>       0.00126263 </v>
   <v>       0.00126263 </v>
   <v>       0.00126263 </v>
   <v>       0.00126263 </v>
   <v>       0.00126263 </v>
   <v>       0.00126263 </v>
   <v>       0.00126263 </v>
   <v>       0.00126263 </v>
   <v>       0.00126263 </v>
   <v>       0.00126263 </v>
   <v>       0.00126263 </v>
   <v>       0.00126263 </v>
   <v>       0.00126263 </v>
   <v>       0.00126263 </v>
   <v>       0.00126263 </v>
   <v>       0.00126263 </v>
   <v>       0.00126263 </v>
   <v>       0.00126263 </v>
   <v>       0.00126263 </v>
   <v>       0.00126263 </v>
   <v>       0.00126263 </v>
   <v>       0.00126263 </v>
   <v>       0.00126263 </v>
   <v>       0.00126263 </v>
   <v>       0.00126263 </v>
   <v>       0.00126263 </v>
   <v>       0.00126263 </v>
   <v>       0.00126263 </v>
   <v>       0.00126263 </v>
   <v>       0.00126263 </v>
   <v>       0.00126263 </v>
   <v>       0.00126263 </v>
   <v>       0.00126263 </v>
   <v>       0.00126263 </v>
   <v>       0.00126263 </v>
   <v>       0.00126263 </v>
   <v>       0.00126263 </v>
   <v>       0.00126263 </v>
   <v>       0.00126263 </v>
   <v>       0.00126263 </v>
   <v>       0.00126263 </v>
   <v>       0.00126263 </v>
   <v>       0.00126263 </v>
   <v>       0.00126263 </v>
   <v>       0.00126263 </v>
   <v>       0.00126263 </v>
   <v>       0.00126263 </v>
   <v>       0.00126263 </v>
   <v>       0.00126263 </v>
   <v>       0.00126263 </v>
   <v>       0.00126263 </v>
   <v>       0.00126263 </v>
   <v>       0.00126263 </v>
   <v>       0.00126263 </v>
   <v>       0.00126263 </v>
   <v>       0.00126263 </v>
   <v>       0.00126263 </v>
   <v>       0.00126263 </v>
   <v>       0.00126263 </v>
   <v>       0.00126263 </v>
   <v>       0.00126263 </v>
   <v>       0.00126263 </v>
   <v>       0.00126263 </v>
   <v>       0.00126263 </v>
   <v>       0.00126263 </v>
   <v>       0.00126263 </v>
   <v>       0.00126263 </v>
   <v>       0.00126263 </v>
   <v>       0.00126263 </v>
   <v>       0.00126263 </v>
   <v>       0.00126263 </v>
   <v>       0.00126263 </v>
   <v>       0.00126263 </v>
   <v>       0.00126263 </v>
   <v>       0.00126263 </v>
   <v>       0.00126263 </v>
   <v>       0.00126263 </v>
   <v>       0.00126263 </v>
   <v>       0.00126263 </v>
   <v>       0.00126263 </v>
   <v>       0.00126263 </v>
   <v>       0.00126263 </v>
   <v>       0.00126263 </v>
   <v>       0.00126263 </v>
   <v>       0.00126263 </v>
   <v>       0.00126263 </v>
   <v>       0.00126263 </v>
   <v>       0.00126263 </v>
   <v>       0.00126263 </v>
   <v>       0.00126263 </v>
   <v>       0.00126263 </v>
   <v>       0.00126263 </v>
   <v>       0.00126263 </v>
   <v>       0.00126263 </v>
   <v>       0.00126263 </v>
   <v>       0.00126263 </v>
   <v>       0.00126263 </v>
   <v>       0.00126263 </v>
   <v>       0.00126263 </v>
   <v>       0.00126263 </v>
   <v>       0.00126263 </v>
   <v>       0.00126263 </v>
   <v>       0.00126263 </v>
   <v>       0.00126263 </v>
   <v>       0.00126263 </v>
   <v>       0.00126263 </v>
   <v>       0.00126263 </v>
   <v>       0.00126263 </v>
   <v>       0.00126263 </v>
   <v>       0.00126263 </v>
   <v>       0.00126263 </v>
   <v>       0.00126263 </v>
   <v>       0.00126263 </v>
   <v>       0.00126263 </v>
   <v>       0.00126263 </v>
   <v>       0.00126263 </v>
   <v>       0.00126263 </v>
   <v>       0.00126263 </v>
   <v>       0.00126263 </v>
   <v>       0.00126263 </v>
   <v>       0.00126263 </v>
   <v>       0.00126263 </v>
   <v>       0.00126263 </v>
   <v>       0.00126263 </v>
   <v>       0.00126263 </v>
   <v>       0.00126263 </v>
   <v>       0.00126263 </v>
   <v>       0.00126263 </v>
   <v>       0.00126263 </v>
   <v>       0.00126263 </v>
   <v>       0.00126263 </v>
   <v>       0.00126263 </v>
   <v>       0.00126263 </v>
   <v>       0.00126263 </v>
   <v>       0.00126263 </v>
   <v>       0.00126263 </v>
   <v>       0.00126263 </v>
   <v>       0.00126263 </v>
   <v>       0.00126263 </v>
   <v>       0.00126263 </v>
   <v>       0.00126263 </v>
   <v>       0.00126263 </v>
   <v>       0.00126263 </v>
   <v>       0.00126263 </v>
   <v>       0.00126263 </v>
   <v>       0.00126263 </v>
   <v>       0.00126263 </v>
   <v>       0.00126263 </v>
   <v>       0.00126263 </v>
   <v>       0.00126263 </v>
   <v>       0.00126263 </v>
   <v>       0.00126263 </v>
   <v>       0.00126263 </v>
   <v>       0.00126263 </v>
   <v>       0.00126263 </v>
   <v>       0.00126263 </v>
   <v>       0.00126263 </v>
   <v>       0.00126263 </v>
   <v>       0.00126263 </v>
   <v>       0.00126263 </v>
   <v>       0.00126263 </v>
   <v>       0.00126263 </v>
   <v>       0.00126263 </v>
   <v>       0.00126263 </v>
   <v>       0.00126263 </v>
   <v>       0.00126263 </v>
   <v>       0.00126263 </v>
   <v>       0.00126263 </v>
   <v>       0.00126263 </v>
   <v>       0.00126263 </v>
   <v>       0.00126263 </v>
   <v>       0.00126263 </v>
   <v>       0.00126263 </v>
   <v>       0.00126263 </v>
   <v>       0.00126263 </v>
   <v>       0.00126263 </v>
   <v>       0.00126263 </v>
   <v>       0.00126263 </v>
   <v>       0.00126263 </v>
   <v>       0.00126263 </v>
   <v>       0.00126263 </v>
   <v>       0.00126263 </v>
   <v>       0.00126263 </v>
   <v>       0.00126263 </v>
   <v>       0.00126263 </v>
   <v>       0.00126263 </v>
   <v>       0.00126263 </v>
   <v>       0.00126263 </v>
   <v>       0.00126263 </v>
   <v>       0.00126263 </v>
   <v>       0.00126263 </v>
   <v>       0.00126263 </v>
   <v>       0.00126263 </v>
   <v>       0.00126263 </v>
   <v>       0.00126263 </v>
   <v>       0.00126263 </v>
   <v>       0.00126263 </v>
   <v>       0.00126263 </v>
   <v>       0.00126263 </v>
   <v>       0.00126263 </v>
   <v>       0.00126263 </v>
   <v>       0.00126263 </v>
   <v>       0.00126263 </v>
   <v>       0.00126263 </v>
   <v>       0.00126263 </v>
   <v>       0.00126263 </v>
   <v>       0.00126263 </v>
   <v>       0.00126263 </v>
   <v>       0.00126263 </v>
   <v>       0.00126263 </v>
   <v>       0.00126263 </v>
   <v>       0.00126263 </v>
   <v>       0.00126263 </v>
   <v>       0.00126263 </v>
   <v>       0.00126263 </v>
   <v>       0.00126263 </v>
   <v>       0.00126263 </v>
   <v>       0.00126263 </v>
   <v>       0.00126263 </v>
   <v>       0.00126263 </v>
   <v>       0.00126263 </v>
   <v>       0.00126263 </v>
   <v>       0.00126263 </v>
   <v>       0.00126263 </v>
   <v>       0.00126263 </v>
   <v>       0.00126263 </v>
   <v>       0.00126263 </v>
   <v>       0.00126263 </v>
   <v>       0.00126263 </v>
   <v>       0.00126263 </v>
   <v>       0.00126263 </v>
   <v>       0.00126263 </v>
   <v>       0.00126263 </v>
   <v>       0.00126263 </v>
   <v>       0.00126263 </v>
   <v>       0.00126263 </v>
   <v>       0.00126263 </v>
   <v>       0.00126263 </v>
   <v>       0.00126263 </v>
   <v>       0.00126263 </v>
   <v>       0.00126263 </v>
   <v>       0.00126263 </v>
   <v>       0.00126263 </v>
   <v>       0.00126263 </v>
   <v>       0.00126263 </v>
   <v>       0.00126263 </v>
   <v>       0.00126263 </v>
   <v>       0.00126263 </v>
   <v>       0.00126263 </v>
   <v>       0.00126263 </v>
   <v>       0.00126263 </v>
   <v>       0.00126263 </v>
   <v>       0.00126263 </v>
   <v>       0.00126263 </v>
   <v>       0.00126263 </v>
   <v>       0.00126263 </v>
   <v>       0.00126263 </v>
   <v>       0.00126263 </v>
   <v>       0.00126263 </v>
   <v>       0.00126263 </v>
   <v>       0.00126263 </v>
   <v>       0.00126263 </v>
   <v>       0.00126263 </v>
   <v>       0.00126263 </v>
   <v>       0.00126263 </v>
   <v>       0.00126263 </v>
   <v>       0.00126263 </v>
   <v>       0.00126263 </v>
   <v>       0.00126263 </v>
   <v>       0.00126263 </v>
   <v>       0.00126263 </v>
   <v>       0.00126263 </v>
   <v>       0.00126263 </v>
   <v>       0.00126263 </v>
   <v>       0.00126263 </v>
   <v>       0.00126263 </v>
   <v>       0.00126263 </v>
   <v>       0.00126263 </v>
   <v>       0.00126263 </v>
   <v>       0.00126263 </v>
   <v>       0.00126263 </v>
   <v>       0.00126263 </v>
   <v>       0.00126263 </v>
   <v>       0.00126263 </v>
   <v>       0.00126263 </v>
   <v>       0.00126263 </v>
   <v>       0.00126263 </v>
   <v>       0.00126263 </v>
   <v>       0.00126263 </v>
   <v>       0.00126263 </v>
   <v>       0.00126263 </v>
   <v>       0.00126263 </v>
   <v>       0.00126263 </v>
   <v>       0.00126263 </v>
   <v>       0.00126263 </v>
   <v>       0.00126263 </v>
   <v>       0.00126263 </v>
   <v>       0.00126263 </v>
   <v>       0.00126263 </v>
   <v>       0.00126263 </v>
   <v>       0.00126263 </v>
   <v>       0.00126263 </v>
   <v>       0.00126263 </v>
   <v>       0.00126263 </v>
   <v>       0.00126263 </v>
   <v>       0.00126263 </v>
   <v>       0.00126263 </v>
   <v>       0.00126263 </v>
   <v>       0.00126263 </v>
   <v>       0.00126263 </v>
   <v>       0.00126263 </v>
   <v>       0.00126263 </v>
   <v>       0.00126263 </v>
   <v>       0.00126263 </v>
   <v>       0.00126263 </v>
   <v>       0.00126263 </v>
   <v>       0.00126263 </v>
   <v>       0.00126263 </v>
   <v>       0.00126263 </v>
   <v>       0.00126263 </v>
   <v>       0.00126263 </v>
   <v>       0.00126263 </v>
   <v>       0.00126263 </v>
   <v>       0.00126263 </v>
   <v>       0.00126263 </v>
   <v>       0.00126263 </v>
   <v>       0.00126263 </v>
   <v>       0.00126263 </v>
   <v>       0.00126263 </v>
   <v>       0.00126263 </v>
   <v>       0.00126263 </v>
   <v>       0.00126263 </v>
   <v>       0.00126263 </v>
   <v>       0.00126263 </v>
   <v>       0.00126263 </v>
   <v>       0.00126263 </v>
   <v>       0.00126263 </v>
   <v>       0.00126263 </v>
   <v>       0.00126263 </v>
   <v>       0.00126263 </v>
   <v>       0.00126263 </v>
   <v>       0.00126263 </v>
   <v>       0.00126263 </v>
   <v>       0.00126263 </v>
   <v>       0.00126263 </v>
   <v>       0.00126263 </v>
   <v>       0.00126263 </v>
   <v>       0.00126263 </v>
   <v>       0.00126263 </v>
   <v>       0.00126263 </v>
   <v>       0.00126263 </v>
   <v>       0.00126263 </v>
   <v>       0.00126263 </v>
   <v>       0.00126263 </v>
   <v>       0.00126263 </v>
   <v>       0.00126263 </v>
   <v>       0.00126263 </v>
   <v>       0.00126263 </v>
   <v>       0.00126263 </v>
   <v>       0.00126263 </v>
   <v>       0.00126263 </v>
   <v>       0.00126263 </v>
   <v>       0.00126263 </v>
   <v>       0.00126263 </v>
   <v>       0.00126263 </v>
   <v>       0.00126263 </v>
   <v>       0.00126263 </v>
   <v>       0.00126263 </v>
   <v>       0.00126263 </v>
   <v>       0.00126263 </v>
   <v>       0.00126263 </v>
   <v>       0.00126263 </v>
   <v>       0.00126263 </v>
   <v>       0.00126263 </v>
   <v>       0.00126263 </v>
   <v>       0.00126263 </v>
   <v>       0.00126263 </v>
   <v>       0.00126263 </v>
   <v>       0.00126263 </v>
   <v>       0.00126263 </v>
   <v>       0.00126263 </v>
   <v>       0.00126263 </v>
   <v>       0.00126263 </v>
   <v>       0.00126263 </v>
   <v>       0.00126263 </v>
   <v>       0.00126263 </v>
   <v>       0.00126263 </v>
   <v>       0.00126263 </v>
   <v>       0.00126263 </v>
   <v>       0.00126263 </v>
   <v>       0.00126263 </v>
   <v>       0.00126263 </v>
   <v>       0.00126263 </v>
   <v>       0.00126263 </v>
   <v>       0.00126263 </v>
   <v>       0.00126263 </v>
   <v>       0.00126263 </v>
   <v>       0.00126263 </v>
   <v>       0.00126263 </v>
   <v>       0.00126263 </v>
   <v>       0.00126263 </v>
   <v>       0.00126263 </v>
   <v>       0.00126263 </v>
   <v>       0.00126263 </v>
   <v>       0.00126263 </v>
   <v>       0.00126263 </v>
   <v>       0.00126263 </v>
   <v>       0.00126263 </v>
   <v>       0.00126263 </v>
   <v>       0.00126263 </v>
   <v>       0.00126263 </v>
   <v>       0.00126263 </v>
   <v>       0.00126263 </v>
   <v>       0.00126263 </v>
   <v>       0.00126263 </v>
   <v>       0.00126263 </v>
   <v>       0.00126263 </v>
   <v>       0.00126263 </v>
   <v>       0.00126263 </v>
   <v>       0.00126263 </v>
   <v>       0.00126263 </v>
   <v>       0.00126263 </v>
   <v>       0.00126263 </v>
   <v>       0.00126263 </v>
   <v>       0.00126263 </v>
   <v>       0.00126263 </v>
   <v>       0.00126263 </v>
   <v>       0.00126263 </v>
   <v>       0.00126263 </v>
   <v>       0.00126263 </v>
   <v>       0.00126263 </v>
   <v>       0.00126263 </v>
   <v>       0.00126263 </v>
   <v>       0.00126263 </v>
   <v>       0.00126263 </v>
   <v>       0.00126263 </v>
   <v>       0.00126263 </v>
   <v>       0.00126263 </v>
   <v>       0.00126263 </v>
   <v>       0.00126263 </v>
   <v>       0.00126263 </v>
   <v>       0.00126263 </v>
   <v>       0.00126263 </v>
   <v>       0.00126263 </v>
   <v>       0.00126263 </v>
   <v>       0.00126263 </v>
   <v>       0.00126263 </v>
   <v>       0.00126263 </v>
   <v>       0.00126263 </v>
   <v>       0.00126263 </v>
   <v>       0.00126263 </v>
   <v>       0.00126263 </v>
   <v>       0.00126263 </v>
   <v>       0.00126263 </v>
   <v>       0.00126263 </v>
   <v>       0.00126263 </v>
   <v>       0.00126263 </v>
   <v>       0.00126263 </v>
   <v>       0.00126263 </v>
   <v>       0.00126263 </v>
   <v>       0.00126263 </v>
   <v>       0.00126263 </v>
   <v>       0.00126263 </v>
   <v>       0.00126263 </v>
   <v>       0.00126263 </v>
   <v>       0.00126263 </v>
   <v>       0.00126263 </v>
   <v>       0.00126263 </v>
   <v>       0.00126263 </v>
   <v>       0.00126263 </v>
   <v>       0.00126263 </v>
   <v>       0.00126263 </v>
   <v>       0.00126263 </v>
   <v>       0.00126263 </v>
   <v>       0.00126263 </v>
   <v>       0.00126263 </v>
   <v>       0.00126263 </v>
   <v>       0.00126263 </v>
   <v>       0.00126263 </v>
   <v>       0.00126263 </v>
   <v>       0.00126263 </v>
   <v>       0.00126263 </v>
   <v>       0.00126263 </v>
   <v>       0.00126263 </v>
   <v>       0.00126263 </v>
   <v>       0.00126263 </v>
   <v>       0.00126263 </v>
   <v>       0.00126263 </v>
   <v>       0.00126263 </v>
   <v>       0.00126263 </v>
   <v>       0.00126263 </v>
   <v>       0.00126263 </v>
   <v>       0.00126263 </v>
   <v>       0.00126263 </v>
   <v>       0.00126263 </v>
   <v>       0.00126263 </v>
   <v>       0.00126263 </v>
   <v>       0.00126263 </v>
   <v>       0.00126263 </v>
   <v>       0.00126263 </v>
   <v>       0.00126263 </v>
   <v>       0.00126263 </v>
   <v>       0.00126263 </v>
   <v>       0.00126263 </v>
   <v>       0.00126263 </v>
   <v>       0.00126263 </v>
   <v>       0.00126263 </v>
   <v>       0.00126263 </v>
   <v>       0.00126263 </v>
   <v>       0.00126263 </v>
   <v>       0.00126263 </v>
   <v>       0.00126263 </v>
   <v>       0.00126263 </v>
   <v>       0.00126263 </v>
   <v>       0.00126263 </v>
   <v>       0.00126263 </v>
   <v>       0.00126263 </v>
   <v>       0.00126263 </v>
   <v>       0.00126263 </v>
   <v>       0.00126263 </v>
   <v>       0.00126263 </v>
   <v>       0.00126263 </v>
   <v>       0.00126263 </v>
   <v>       0.00126263 </v>
   <v>       0.00126263 </v>
   <v>       0.00126263 </v>
   <v>       0.00126263 </v>
   <v>       0.00126263 </v>
   <v>       0.00126263 </v>
   <v>       0.00126263 </v>
   <v>       0.00126263 </v>
   <v>       0.00126263 </v>
   <v>       0.00126263 </v>
   <v>       0.00126263 </v>
   <v>       0.00126263 </v>
   <v>       0.00126263 </v>
   <v>       0.00126263 </v>
   <v>       0.00126263 </v>
   <v>       0.00126263 </v>
   <v>       0.00126263 </v>
   <v>       0.00126263 </v>
   <v>       0.00126263 </v>
   <v>       0.00126263 </v>
   <v>       0.00126263 </v>
   <v>       0.00126263 </v>
   <v>       0.00126263 </v>
   <v>       0.00126263 </v>
   <v>       0.00126263 </v>
  </varray>
 </kpoints>
 <parameters>
  <separator name="general" >
   <i type="string" name="SYSTEM">Al fcc relaxation</i>
   <i type="logical" name="LCOMPAT"> F  </i>
  </separator>
  <separator name="electronic" >
   <i type="string" name="PREC">accura</i>
   <i name="ENMAX">    400.00000000</i>
   <i name="ENAUG">    291.05200000</i>
   <i name="EDIFF">      0.00000100</i>
   <i type="int" name="IALGO">    68</i>
   <i type="int" name="IWAVPR">    10</i>
   <i type="int" name="NBANDS">    32</i>
   <i name="NELECT">     36.00000000</i>
   <i type="int" name="TURBO">     0</i>
   <i type="int" name="IRESTART">     0</i>
   <i type="int" name="NREBOOT">     0</i>
   <i type="int" name="NMIN">     0</i>
   <i name="EREF">      0.00000000</i>
   <separator name="electronic smearing" >
    <i type="int" name="ISMEAR">     1</i>
    <i name="SIGMA">      0.20000000</i>
    <i name="KSPACING">      0.08000000</i>
    <i type="logical" name="KGAMMA"> T  </i>
   </separator>
   <separator name="electronic projectors" >
    <i type="logical" name="LREAL"> T  </i>
    <v name="ROPT">     -0.00025000</v>
    <i type="int" name="LMAXPAW">  -100</i>
    <i type="int" name="LMAXMIX">     2</i>
    <i type="logical" name="NLSPLINE"> F  </i>
   </separator>
   <separator name="electronic startup" >
    <i type="int" name="ISTART">     0</i>
    <i type="int" name="ICHARG">     2</i>
    <i type="int" name="INIWAV">     1</i>
   </separator>
   <separator name="electronic spin" >
    <i type="int" name="ISPIN">     1</i>
    <i type="logical" name="LNONCOLLINEAR"> F  </i>
    <v name="MAGMOM">      1.00000000      1.00000000      1.00000000      1.00000000      1.00000000      1.00000000      1.00000000      1.00000000      1.00000000      1.00000000      1.00000000      1.00000000</v>
    <i name="NUPDOWN">     -1.00000000</i>
    <i type="logical" name="LSORBIT"> F  </i>
    <v name="SAXIS">      0.00000000      0.00000000      1.00000000</v>
    <i type="logical" name="LSPIRAL"> F  </i>
    <v name="QSPIRAL">      0.00000000      0.00000000      0.00000000</v>
    <i type="logical" name="LZEROZ"> F  </i>
   </separator>
   <separator name="electronic exchange-correlation" >
    <i type="logical" name="LASPH"> F  </i>
    <i type="logical" name="LMETAGGA"> F  </i>
   </separator>
   <separator name="electronic convergence" >
    <i type="int" name="NELM">    60</i>
    <i type="int" name="NELMDL">    -5</i>
    <i type="int" name="NELMIN">     4</i>
    <i name="ENINI">    400.00000000</i>
    <separator name="electronic convergence detail" >
     <i type="logical" name="LDIAG"> T  </i>
     <i type="logical" name="LSUBROT"> F  </i>
     <i name="WEIMIN">      0.00000000</i>
     <i name="EBREAK">      0.00000001</i>
     <i name="DEPER">      0.30000000</i>
     <i type="int" name="NRMM">     4</i>
     <i name="TIME">      0.40000000</i>
    </separator>
   </separator>
   <separator name="electronic mixer" >
    <i name="AMIX">      0.40000000</i>
    <i name="BMIX">      1.00000000</i>
    <i name="AMIN">      0.10000000</i>
    <i name="AMIX_MAG">      1.60000000</i>
    <i name="BMIX_MAG">      1.00000000</i>
    <separator name="electronic mixer details" >
     <i type="int" name="IMIX">     4</i>
     <i type="logical" name="MIXFIRST"> F  </i>
     <i type="int" name="MAXMIX">   -45</i>
     <i name="WC">    100.00000000</i>
     <i type="int" name="INIMIX">     1</i>
     <i type="int" name="MIXPRE">     1</i>
     <i type="int" name="MREMOVE">     5</i>
[...]
       <r>   -2.2218    1.0000 </r>
       <r>   -1.7392    1.0000 </r>
       <r>   -1.4830    1.0000 </r>
       <r>   -1.3542    1.0000 </r>
       <r>   -1.0352    1.0000 </r>
       <r>   -0.7597    1.0000 </r>
       <r>   -0.5761    1.0000 </r>
       <r>   -0.1669    1.0000 </r>
       <r>    0.1198    1.0000 </r>
       <r>    0.3626    1.0000 </r>
       <r>    0.6744    1.0173 </r>
       <r>    0.9723    0.6960 </r>
       <r>    1.2059   -0.0160 </r>
       <r>    1.7714   -0.0000 </r>
       <r>    2.3216   -0.0000 </r>
       <r>    2.3408   -0.0000 </r>
       <r>    2.7595   -0.0000 </r>
       <r>    2.9530   -0.0000 </r>
       <r>    3.0779   -0.0000 </r>
       <r>    3.1712   -0.0000 </r>
       <r>    3.5567   -0.0000 </r>
       <r>    3.8819   -0.0000 </r>
       <r>    4.1164   -0.0000 </r>
       <r>    4.5040   -0.0000 </r>
       <r>    4.8580   -0.0000 </r>
      </set>
      <set comment="kpoint 791">
       <r>   -9.7688    1.0000 </r>
       <r>   -8.8982    1.0000 </r>
       <r>   -7.5383    1.0000 </r>
       <r>   -5.8030    1.0000 </r>
       <r>   -3.8349    1.0000 </r>
       <r>   -2.8131    1.0000 </r>
       <r>   -2.6418    1.0000 </r>
       <r>   -2.0585    1.0000 </r>
       <r>   -1.8875    1.0000 </r>
       <r>   -1.6281    1.0000 </r>
       <r>   -0.8328    1.0000 </r>
       <r>   -0.6025    1.0000 </r>
       <r>   -0.4694    1.0000 </r>
       <r>   -0.0931    1.0000 </r>
       <r>    0.1645    1.0000 </r>
       <r>    0.2982    1.0000 </r>
       <r>    0.3183    1.0000 </r>
       <r>    1.0450    0.3956 </r>
       <r>    1.3864   -0.0133 </r>
       <r>    1.4847   -0.0025 </r>
       <r>    1.7260   -0.0000 </r>
       <r>    2.1250   -0.0000 </r>
       <r>    2.2770   -0.0000 </r>
       <r>    2.3580   -0.0000 </r>
       <r>    2.8111   -0.0000 </r>
       <r>    2.9806   -0.0000 </r>
       <r>    3.1340   -0.0000 </r>
       <r>    3.2570   -0.0000 </r>
       <r>    3.4587   -0.0000 </r>
       <r>    3.7535   -0.0000 </r>
       <r>    4.1961   -0.0000 </r>
       <r>    4.2784   -0.0000 </r>
      </set>
      <set comment="kpoint 792">
       <r>   -9.8046    1.0000 </r>
       <r>   -8.9337    1.0000 </r>
       <r>   -7.5734    1.0000 </r>
       <r>   -5.8375    1.0000 </r>
       <r>   -3.8689    1.0000 </r>
       <r>   -2.9809    1.0000 </r>
       <r>   -2.5437    1.0000 </r>
       <r>   -2.1906    1.0000 </r>
       <r>   -1.8740    1.0000 </r>
       <r>   -1.6107    1.0000 </r>
       <r>   -0.8586    1.0000 </r>
       <r>   -0.1672    1.0000 </r>
       <r>   -0.0775    1.0000 </r>
       <r>    0.0672    1.0000 </r>
       <r>    0.2669    1.0000 </r>
       <r>    0.6219    1.0082 </r>
       <r>    0.8321    1.0178 </r>
       <r>    0.9596    0.7438 </r>
       <r>    1.4164   -0.0085 </r>
       <r>    1.5938   -0.0002 </r>
       <r>    1.8100   -0.0000 </r>
       <r>    1.8461   -0.0000 </r>
       <r>    2.2067   -0.0000 </r>
       <r>    2.2307   -0.0000 </r>
       <r>    2.3422   -0.0000 </r>
       <r>    2.6771   -0.0000 </r>
       <r>    3.0617   -0.0000 </r>
       <r>    3.4550   -0.0000 </r>
       <r>    3.5318   -0.0000 </r>
       <r>    3.7808   -0.0000 </r>
       <r>    4.0041   -0.0000 </r>
       <r>    4.0082   -0.0000 </r>
      </set>
     </set>
    </set>
   </array>
  </eigenvalues>
  <separator name="orbital magnetization" >
   <v name="MAGDIPOLOUT">      0.00000000      0.00000000      0.00000000</v>
  </separator>
  <dos>
   <i name="efermi">      1.02016222 </i>
   <total>
    <array>
     <dimension dim="1">gridpoints</dimension>
     <dimension dim="2">spin</dimension>
     <field>energy</field>
     <field>total</field>
     <field>integrated</field>
     <set>
      <set comment="spin 1">
       <r>   -11.8046     0.0000     0.0000 </r>
       <r>   -11.7357     0.0000     0.0000 </r>
       <r>   -11.6668     0.0000     0.0000 </r>
       <r>   -11.5979     0.0000     0.0000 </r>
       <r>   -11.5290     0.0000     0.0000 </r>
       <r>   -11.4601    -0.0000    -0.0000 </r>
       <r>   -11.3913    -0.0000    -0.0000 </r>
       <r>   -11.3224    -0.0000    -0.0000 </r>
       <r>   -11.2535    -0.0000    -0.0000 </r>
       <r>   -11.1846    -0.0000    -0.0000 </r>
       <r>   -11.1157    -0.0000    -0.0000 </r>
       <r>   -11.0468    -0.0000    -0.0000 </r>
       <r>   -10.9779    -0.0000    -0.0000 </r>
       <r>   -10.9091    -0.0000    -0.0000 </r>
       <r>   -10.8402    -0.0000    -0.0000 </r>
       <r>   -10.7713    -0.0000    -0.0000 </r>
       <r>   -10.7024    -0.0000    -0.0000 </r>
       <r>   -10.6335    -0.0000    -0.0000 </r>
       <r>   -10.5646    -0.0000    -0.0000 </r>
       <r>   -10.4957    -0.0000    -0.0000 </r>
       <r>   -10.4268    -0.0000    -0.0000 </r>
       <r>   -10.3580    -0.0001    -0.0000 </r>
       <r>   -10.2891    -0.0007    -0.0001 </r>
       <r>   -10.2202    -0.0031    -0.0003 </r>
       <r>   -10.1513    -0.0094    -0.0009 </r>
       <r>   -10.0824    -0.0204    -0.0023 </r>
       <r>   -10.0135    -0.0259    -0.0041 </r>
       <r>    -9.9446     0.0036    -0.0039 </r>
       <r>    -9.8757     0.1067     0.0035 </r>
       <r>    -9.8069     0.2920     0.0236 </r>
       <r>    -9.7380     0.5110     0.0588 </r>
       <r>    -9.6691     0.6876     0.1062 </r>
       <r>    -9.6002     0.7801     0.1599 </r>
       <r>    -9.5313     0.8035     0.2153 </r>
       <r>    -9.4624     0.7962     0.2701 </r>
       <r>    -9.3935     0.7845     0.3242 </r>
       <r>    -9.3246     0.7762     0.3776 </r>
       <r>    -9.2558     0.7676     0.4305 </r>
       <r>    -9.1869     0.7543     0.4825 </r>
       <r>    -9.1180     0.7552     0.5345 </r>
       <r>    -9.0491     0.8131     0.5905 </r>
       <r>    -8.9802     0.9516     0.6560 </r>
       <r>    -8.9113     1.1489     0.7352 </r>
       <r>    -8.8424     1.3588     0.8288 </r>
       <r>    -8.7736     1.5251     0.9339 </r>
       <r>    -8.7047     1.5978     1.0439 </r>
       <r>    -8.6358     1.5840     1.1530 </r>
       <r>    -8.5669     1.5578     1.2604 </r>
       <r>    -8.4980     1.5738     1.3688 </r>
       <r>    -8.4291     1.6014     1.4791 </r>
       <r>    -8.3602     1.5847     1.5883 </r>
       <r>    -8.2913     1.5401     1.6943 </r>
       <r>    -8.2225     1.5380     1.8003 </r>
       <r>    -8.1536     1.5902     1.9098 </r>
       <r>    -8.0847     1.6203     2.0215 </r>
       <r>    -8.0158     1.5828     2.1305 </r>
       <r>    -7.9469     1.5316     2.2360 </r>
       <r>    -7.8780     1.5245     2.3410 </r>
       <r>    -7.8091     1.5494     2.4478 </r>
       <r>    -7.7402     1.5909     2.5573 </r>
       <r>    -7.6714     1.6765     2.6728 </r>
       <r>    -7.6025     1.8212     2.7983 </r>
       <r>    -7.5336     1.9926     2.9356 </r>
       <r>    -7.4647     2.1571     3.0842 </r>
       <r>    -7.3958     2.3117     3.2434 </r>
       <r>    -7.3269     2.4474     3.4120 </r>
       <r>    -7.2580     2.5113     3.5850 </r>
       <r>    -7.1891     2.4558     3.7542 </r>
       <r>    -7.1203     2.3264     3.9144 </r>
       <r>    -7.0514     2.2458     4.0691 </r>
       <r>    -6.9825     2.2925     4.2271 </r>
       <r>    -6.9136     2.4268     4.3942 </r>
       <r>    -6.8447     2.5337     4.5688 </r>
       <r>    -6.7758     2.5188     4.7423 </r>
       <r>    -6.7069     2.3970     4.9074 </r>
       <r>    -6.6381     2.2913     5.0653 </r>
       <r>    -6.5692     2.3002     5.2237 </r>
       <r>    -6.5003     2.3894     5.3883 </r>
       <r>    -6.4314     2.4581     5.5576 </r>
       <r>    -6.3625     2.4662     5.7275 </r>
       <r>    -6.2936     2.4293     5.8949 </r>
       <r>    -6.2247     2.3507     6.0568 </r>
       <r>    -6.1558     2.2491     6.2117 </r>
       <r>    -6.0870     2.2132     6.3642 </r>
       <r>    -6.0181     2.3317     6.5248 </r>
       <r>    -5.9492     2.5686     6.7018 </r>
       <r>    -5.8803     2.7819     6.8934 </r>
       <r>    -5.8114     2.8893     7.0924 </r>
       <r>    -5.7425     2.9438     7.2952 </r>
       <r>    -5.6736     3.0190     7.5032 </r>
       <r>    -5.6047     3.1128     7.7176 </r>
       <r>    -5.5359     3.2003     7.9381 </r>
       <r>    -5.4670     3.2841     8.1643 </r>
       <r>    -5.3981     3.3501     8.3951 </r>
       <r>    -5.3292     3.3544     8.6262 </r>
       <r>    -5.2603     3.3010     8.8536 </r>
       <r>    -5.1914     3.2706     9.0789 </r>
       <r>    -5.1225     3.3075     9.3067 </r>
       <r>    -5.0536     3.3287     9.5360 </r>
       <r>    -4.9848     3.2429     9.7594 </r>
       <r>    -4.9159     3.1054     9.9733 </r>
       <r>    -4.8470     3.0357    10.1825 </r>
       <r>    -4.7781     3.0523    10.3927 </r>
       <r>    -4.7092     3.1007    10.6063 </r>
       <r>    -4.6403     3.1555    10.8237 </r>
       <r>    -4.5714     3.2028    11.0443 </r>
       <r>    -4.5026     3.1988    11.2647 </r>
       <r>    -4.4337     3.1260    11.4800 </r>
       <r>    -4.3648     3.0577    11.6907 </r>
       <r>    -4.2959     3.0992    11.9042 </r>
       <r>    -4.2270     3.2465    12.1278 </r>
       <r>    -4.1581     3.3575    12.3591 </r>
       <r>    -4.0892     3.3136    12.5874 </r>
       <r>    -4.0203     3.1809    12.8065 </r>
       <r>    -3.9515     3.1521    13.0236 </r>
       <r>    -3.8826     3.3327    13.2532 </r>
       <r>    -3.8137     3.6387    13.5039 </r>
       <r>    -3.7448     3.9192    13.7738 </r>
       <r>    -3.6759     4.1166    14.0574 </r>
       <r>    -3.6070     4.2582    14.3508 </r>
       <r>    -3.5381     4.3456    14.6501 </r>
       <r>    -3.4692     4.3384    14.9490 </r>
       <r>    -3.4004     4.2350    15.2407 </r>
       <r>    -3.3315     4.1001    15.5231 </r>
       <r>    -3.2626     4.0069    15.7992 </r>
       <r>    -3.1937     3.9725    16.0728 </r>
       <r>    -3.1248     3.9523    16.3451 </r>
       <r>    -3.0559     3.9106    16.6145 </r>
       <r>    -2.9870     3.8853    16.8821 </r>
       <r>    -2.9181     3.9172    17.1520 </r>
       <r>    -2.8493     3.9459    17.4238 </r>
       <r>    -2.7804     3.8887    17.6917 </r>
       <r>    -2.7115     3.7919    17.9529 </r>
       <r>    -2.6426     3.7669    18.2124 </r>
       <r>    -2.5737     3.8057    18.4745 </r>
       <r>    -2.5048     3.8032    18.7365 </r>
       <r>    -2.4359     3.7538    18.9951 </r>
       <r>    -2.3671     3.7790    19.2554 </r>
       <r>    -2.2982     3.9289    19.5261 </r>
       <r>    -2.2293     4.0906    19.8079 </r>
       <r>    -2.1604     4.1641    20.0947 </r>
       <r>    -2.0915     4.2201    20.3855 </r>
       <r>    -2.0226     4.3914    20.6880 </r>
       <r>    -1.9537     4.6668    21.0094 </r>
       <r>    -1.8848     4.8733    21.3452 </r>
       <r>    -1.8160     4.8482    21.6791 </r>
       <r>    -1.7471     4.5981    21.9959 </r>
       <r>    -1.6782     4.3252    22.2938 </r>
       <r>    -1.6093     4.3149    22.5911 </r>
       <r>    -1.5404     4.7092    22.9155 </r>
       <r>    -1.4715     5.3260    23.2824 </r>
       <r>    -1.4026     5.7658    23.6796 </r>
       <r>    -1.3337     5.7625    24.0765 </r>
       <r>    -1.2649     5.3999    24.4485 </r>
       <r>    -1.1960     4.9810    24.7916 </r>
       <r>    -1.1271     4.7439    25.1184 </r>
       <r>    -1.0582     4.7060    25.4426 </r>
       <r>    -0.9893     4.7249    25.7681 </r>
       <r>    -0.9204     4.6780    26.0903 </r>
       <r>    -0.8515     4.5765    26.4056 </r>
       <r>    -0.7826     4.5305    26.7177 </r>
       <r>    -0.7138     4.6378    27.0372 </r>
       <r>    -0.6449     4.8857    27.3738 </r>
       <r>    -0.5760     5.1223    27.7266 </r>
       <r>    -0.5071     5.1431    28.0809 </r>
       <r>    -0.4382     4.8576    28.4155 </r>
       <r>    -0.3693     4.3984    28.7185 </r>
       <r>    -0.3004     4.0528    28.9977 </r>
       <r>    -0.2316     4.0429    29.2762 </r>
       <r>    -0.1627     4.3413    29.5753 </r>
       <r>    -0.0938     4.7053    29.8994 </r>
       <r>    -0.0249     4.9049    30.2373 </r>
       <r>     0.0440     4.9065    30.5753 </r>
       <r>     0.1129     4.8545    30.9097 </r>
       <r>     0.1818     4.9449    31.2503 </r>
       <r>     0.2507     5.2957    31.6151 </r>
       <r>     0.3195     5.8253    32.0164 </r>
       <r>     0.3884     6.2618    32.4478 </r>
       <r>     0.4573     6.3630    32.8861 </r>
       <r>     0.5262     6.1217    33.3078 </r>
       <r>     0.5951     5.7322    33.7027 </r>
       <r>     0.6640     5.4104    34.0754 </r>
       <r>     0.7329     5.2690    34.4384 </r>
       <r>     0.8018     5.3053    34.8038 </r>
       <r>     0.8706     5.4343    35.1782 </r>
       <r>     0.9395     5.5244    35.5587 </r>
       <r>     1.0084     5.4826    35.9364 </r>
       <r>     1.0773     5.3702    36.3064 </r>
       <r>     1.1462     5.3660    36.6760 </r>
       <r>     1.2151     5.5357    37.0573 </r>
       <r>     1.2840     5.7100    37.4507 </r>
       <r>     1.3529     5.6737    37.8415 </r>
       <r>     1.4217     5.4139    38.2145 </r>
       <r>     1.4906     5.1122    38.5666 </r>
       <r>     1.5595     4.9374    38.9068 </r>
       <r>     1.6284     4.9045    39.2446 </r>
       <r>     1.6973     4.9269    39.5840 </r>
       <r>     1.7662     4.9400    39.9243 </r>
       <r>     1.8351     4.9213    40.2633 </r>
       <r>     1.9039     4.8495    40.5974 </r>
       <r>     1.9728     4.7471    40.9244 </r>
       <r>     2.0417     4.7333    41.2505 </r>
       <r>     2.1106     4.9251    41.5898 </r>
       <r>     2.1795     5.3023    41.9550 </r>
       <r>     2.2484     5.7491    42.3511 </r>
       <r>     2.3173     6.1742    42.7764 </r>
       <r>     2.3862     6.5145    43.2251 </r>
       <r>     2.4550     6.6890    43.6859 </r>
       <r>     2.5239     6.6398    44.1433 </r>
       <r>     2.5928     6.4117    44.5850 </r>
       <r>     2.6617     6.1588    45.0093 </r>
       <r>     2.7306     6.0478    45.4259 </r>
       <r>     2.7995     6.1495    45.8495 </r>
       <r>     2.8684     6.4308    46.2925 </r>
       <r>     2.9373     6.8126    46.7618 </r>
       <r>     3.0061     7.1745    47.2560 </r>
       <r>     3.0750     7.3514    47.7624 </r>
       <r>     3.1439     7.2335    48.2607 </r>
       <r>     3.2128     6.8701    48.7340 </r>
       <r>     3.2817     6.3979    49.1747 </r>
       <r>     3.3506     5.8924    49.5806 </r>
       <r>     3.4195     5.3811    49.9513 </r>
       <r>     3.4884     4.9555    50.2927 </r>
       <r>     3.5572     4.7657    50.6210 </r>
       <r>     3.6261     4.9091    50.9592 </r>
       <r>     3.6950     5.3330    51.3265 </r>
       <r>     3.7639     5.8209    51.7275 </r>
       <r>     3.8328     6.1339    52.1501 </r>
       <r>     3.9017     6.2173    52.5784 </r>
       <r>     3.9706     6.2106    53.0062 </r>
       <r>     4.0394     6.2454    53.4364 </r>
       <r>     4.1083     6.3184    53.8717 </r>
       <r>     4.1772     6.3674    54.3103 </r>
       <r>     4.2461     6.3808    54.7499 </r>
       <r>     4.3150     6.4112    55.1915 </r>
       <r>     4.3839     6.5331    55.6416 </r>
       <r>     4.4528     6.7815    56.1087 </r>
       <r>     4.5217     7.0653    56.5954 </r>
       <r>     4.5905     7.1816    57.0901 </r>
       <r>     4.6594     7.0157    57.5734 </r>
       <r>     4.7283     6.7003    58.0350 </r>
       <r>     4.7972     6.4766    58.4811 </r>
       <r>     4.8661     6.4153    58.9231 </r>
       <r>     4.9350     6.3749    59.3622 </r>
       <r>     5.0039     6.2284    59.7913 </r>
       <r>     5.0728     6.0113    60.2054 </r>
       <r>     5.1416     5.8016    60.6050 </r>
       <r>     5.2105     5.5753    60.9891 </r>
       <r>     5.2794     5.2697    61.3521 </r>
       <r>     5.3483     4.9153    61.6907 </r>
       <r>     5.4172     4.6134    62.0085 </r>
       <r>     5.4861     4.4162    62.3127 </r>
       <r>     5.5550     4.2766    62.6074 </r>
       <r>     5.6239     4.0857    62.8888 </r>
       <r>     5.6927     3.7378    63.1463 </r>
       <r>     5.7616     3.2050    63.3671 </r>
       <r>     5.8305     2.5638    63.5437 </r>
       <r>     5.8994     1.9306    63.6767 </r>
       <r>     5.9683     1.3856    63.7721 </r>
       <r>     6.0372     0.9638    63.8385 </r>
       <r>     6.1061     0.6727    63.8849 </r>
       <r>     6.1749     0.4890    63.9186 </r>
       <r>     6.2438     0.3633    63.9436 </r>
       <r>     6.3127     0.2548    63.9611 </r>
       <r>     6.3816     0.1601    63.9722 </r>
       <r>     6.4505     0.0973    63.9789 </r>
       <r>     6.5194     0.0679    63.9835 </r>
       <r>     6.5883     0.0517    63.9871 </r>
       <r>     6.6572     0.0348    63.9895 </r>
       <r>     6.7260     0.0243    63.9912 </r>
       <r>     6.7949     0.0278    63.9931 </r>
       <r>     6.8638     0.0366    63.9956 </r>
       <r>     6.9327     0.0361    63.9981 </r>
       <r>     7.0016     0.0236    63.9997 </r>
       <r>     7.0705     0.0087    64.0003 </r>
       <r>     7.1394    -0.0001    64.0003 </r>
       <r>     7.2083    -0.0022    64.0002 </r>
       <r>     7.2771    -0.0015    64.0001 </r>
       <r>     7.3460    -0.0006    64.0000 </r>
       <r>     7.4149    -0.0002    64.0000 </r>
       <r>     7.4838    -0.0000    64.0000 </r>
       <r>     7.5527    -0.0000    64.0000 </r>
       <r>     7.6216    -0.0000    64.0000 </r>
       <r>     7.6905    -0.0000    64.0000 </r>
       <r>     7.7594    -0.0000    64.0000 </r>
       <r>     7.8282    -0.0000    64.0000 </r>
       <r>     7.8971    -0.0000    64.0000 </r>
       <r>     7.9660    -0.0000    64.0000 </r>
       <r>     8.0349    -0.0000    64.0000 </r>
       <r>     8.1038    -0.0000    64.0000 </r>
       <r>     8.1727     0.0000    64.0000 </r>
       <r>     8.2416     0.0000    64.0000 </r>
       <r>     8.3104     0.0000    64.0000 </r>
       <r>     8.3793     0.0000    64.0000 </r>
       <r>     8.4482     0.0000    64.0000 </r>
       <r>     8.5171     0.0000    64.0000 </r>
       <r>     8.5860     0.0000    64.0000 </r>
       <r>     8.6549     0.0000    64.0000 </r>
       <r>     8.7238     0.0000    64.0000 </r>
       <r>     8.7927     0.0000    64.0000 </r>
       <r>     8.8615     0.0000    64.0000 </r>
      </set>
     </set>
    </array>
   </total>
  </dos>
 </calculation>
 <structure name="finalpos" >
  <crystal>
   <varray name="basis" >
    <v>       4.02612798       0.00000000       0.32131999 </v>
    <v>       2.00024193       4.51278354       0.32131999 </v>
    <v>       0.01000000       0.00000000      25.38427951 </v>
   </varray>
   <i name="volume">    461.19359319 </i>
   <varray name="rec_basis" >
    <v>       0.24838541      -0.11008715      -0.00009785 </v>
    <v>       0.00000000       0.22159272       0.00000000 </v>
    <v>      -0.00314412      -0.00141146       0.03939570 </v>
   </varray>
  </crystal>
  <varray name="positions" >
   <v>       0.44642857       0.16071429       0.94642857 </v>
   <v>       0.87500000       0.37500000       0.87500000 </v>
   <v>       0.73214286       0.55357143       0.98214286 </v>
   <v>       0.16071429       0.76785714       0.91071429 </v>
   <v>       0.30357143       0.58928571       0.80357143 </v>
   <v>       0.73214286       0.80357143       0.73214286 </v>
   <v>       0.58928571       0.98214286       0.83928571 </v>
   <v>       0.01785714       0.19642857       0.76785714 </v>
   <v>       0.16071429       0.01785714       0.66071429 </v>
   <v>       0.58928571       0.23214286       0.58928571 </v>
   <v>       0.44642857       0.41071429       0.69642857 </v>
   <v>       0.87500000       0.62500000       0.62500000 </v>
  </varray>
 </structure>
</modeling>
