 running   14 mpi-ranks, with    2 threads/rank, on    1 nodes
 distrk:  each k-point on   14 cores,    1 groups
 distr:  one band on    1 cores,   14 groups
 vasp.6.4.2 20Jul23 (build Apr 22 2024 22:35:45) complex                         
 POSCAR found type information on POSCAR Al
 POSCAR found :  1 types and       4 ions
 scaLAPACK will be used
 -----------------------------------------------------------------------------
|                                                                             |
|               ----> ADVICE to this user running VASP <----                  |
|                                                                             |
|     You have a (more or less) 'small supercell' and for smaller cells       |
|     it is recommended to use the reciprocal-space projection scheme!        |
|     The real-space optimization is not efficient for small cells and it     |
|     is also less accurate ...                                               |
|     Therefore, set LREAL=.FALSE. in the INCAR file.                         |
|                                                                             |
 -----------------------------------------------------------------------------

 LDA part: xc-table for Pade appr. of Perdew
 POSCAR, INCAR and KPOINTS ok, starting setup
 FFT: planning ... GRIDC
 FFT: planning ... GRID_SOFT
 FFT: planning ... GRID
 WAVECAR not read
 entering main loop
       N       E                     dE             d eps       ncg     rms          rms(c)
DAV:   1    -0.231752983418E+01   -0.23175E+01   -0.38298E+03 15568   0.521E+02
DAV:   2    -0.150047103354E+02   -0.12687E+02   -0.12322E+02 22792   0.478E+01
DAV:   3    -0.150762472032E+02   -0.71537E-01   -0.71469E-01 19964   0.487E+00
DAV:   4    -0.150764173886E+02   -0.17019E-03   -0.17018E-03 25536   0.231E-01
DAV:   5    -0.150764174812E+02   -0.92550E-07   -0.92125E-07 20510   0.414E-03    0.259E+00
RMM:   6    -0.150245209778E+02    0.51897E-01   -0.54777E-03 15400   0.430E-01    0.152E+00
RMM:   7    -0.149865573759E+02    0.37964E-01   -0.16704E-02 15400   0.719E-01    0.225E-01
RMM:   8    -0.149865267545E+02    0.30621E-04   -0.57498E-04 15400   0.160E-01    0.279E-02
RMM:   9    -0.149865324598E+02   -0.57053E-05   -0.98998E-05 15400   0.688E-02    0.232E-02
RMM:  10    -0.149865335256E+02   -0.10658E-05   -0.22280E-05 15400   0.333E-02    0.220E-02
RMM:  11    -0.149865289946E+02    0.45310E-05   -0.44368E-06 15184   0.129E-02    0.491E-03
RMM:  12    -0.149865289212E+02    0.73334E-07   -0.11882E-06 11460   0.819E-03
   1 F= -.14986529E+02 E0= -.14987271E+02  d E =-.149865E+02
 curvature:   0.00 expect dE= 0.000E+00 dE for cont linesearch  0.000E+00
 trial: gam= 0.00000 g(F)=  0.607E-63 g(S)=  0.000E+00 ort = 0.000E+00 (trialstep = 0.100E+01)
 search vector abs. value=  0.100E-09
 reached required accuracy - stopping structural energy minimisation
