<?xml version="1.0" encoding="ISO-8859-1"?>
<modeling>
 <generator>
  <i name="program" type="string">vasp </i>
  <i name="version" type="string">6.4.2  </i>
  <i name="subversion" type="string">20Jul23 (build Apr 22 2024 22:35:45) complex                          parallel </i>
  <i name="platform" type="string">LinuxGNU </i>
  <i name="date" type="string">2024 05 26 </i>
  <i name="time" type="string">16:32:21 </i>
 </generator>
 <incar>
  <i type="string" name="SYSTEM">Al fcc relaxation</i>
  <i type="string" name="PREC">Accurate</i>
  <i type="string" name="ALGO">Fast</i>
  <i type="int" name="NELM">    60</i>
  <i type="int" name="NELMIN">     4</i>
  <i type="int" name="IBRION">     2</i>
  <i name="EDIFF">      0.00000100</i>
  <i type="int" name="NSW">   100</i>
  <i type="int" name="ISIF">     2</i>
  <i name="ENCUT">    400.00000000</i>
  <i type="string" name="LREAL">Auto</i>
  <i type="int" name="ISMEAR">     1</i>
  <i name="SIGMA">      0.20000000</i>
  <i name="KSPACING">      0.08000000</i>
  <i type="logical" name="LWAVE"> F  </i>
  <i type="logical" name="LCHARG"> F  </i>
 </incar>
 <primitive_cell>
  <structure name="primitive_cell" >
   <crystal>
    <varray name="basis" >
     <v>       0.00000000      -2.01946485      -2.02953705 </v>
     <v>       0.00000000       2.01946485      -2.02953705 </v>
     <v>       2.01946485       0.00000000       2.02953705 </v>
    </varray>
    <i name="volume">     16.55387135 </i>
    <varray name="rec_basis" >
     <v>       0.24759035      -0.24759035      -0.24636160 </v>
     <v>       0.24759035       0.24759035      -0.24636160 </v>
     <v>       0.49518069       0.00000000       0.00000000 </v>
    </varray>
   </crystal>
   <varray name="positions" >
    <v>       0.00000000       0.00000000       0.00000000 </v>
   </varray>
  </structure>
  <varray name="primitive_index" >
   <v type="int" >        1 </v>
  </varray>
 </primitive_cell>
 <kpoints>
  <generation param="Monkhorst-Pack">
   <v type="int" name="divisions">      20       20       20 </v>
   <v name="usershift">      0.00000000       0.00000000       0.00000000 </v>
   <v name="genvec1">      0.05000000      -0.00000000       0.00000000 </v>
   <v name="genvec2">      0.00000000       0.05000000       0.00000000 </v>
   <v name="genvec3">      0.00000000       0.00000000       0.05000000 </v>
   <v name="shift">      0.50000000       0.50000000       0.50000000 </v>
  </generation>
  <varray name="kpointlist" >
   <v>       0.02500000       0.02500000       0.02500000 </v>
   <v>       0.07500000       0.02500000       0.02500000 </v>
   <v>       0.12500000       0.02500000       0.02500000 </v>
   <v>       0.17500000       0.02500000       0.02500000 </v>
   <v>       0.22500000       0.02500000       0.02500000 </v>
   <v>       0.27500000       0.02500000       0.02500000 </v>
   <v>       0.32500000       0.02500000       0.02500000 </v>
   <v>       0.37500000       0.02500000       0.02500000 </v>
   <v>       0.42500000       0.02500000       0.02500000 </v>
   <v>       0.47500000       0.02500000       0.02500000 </v>
   <v>       0.07500000       0.07500000       0.02500000 </v>
   <v>       0.12500000       0.07500000       0.02500000 </v>
   <v>       0.17500000       0.07500000       0.02500000 </v>
   <v>       0.22500000       0.07500000       0.02500000 </v>
   <v>       0.27500000       0.07500000       0.02500000 </v>
   <v>       0.32500000       0.07500000       0.02500000 </v>
   <v>       0.37500000       0.07500000       0.02500000 </v>
   <v>       0.42500000       0.07500000       0.02500000 </v>
   <v>       0.47500000       0.07500000       0.02500000 </v>
   <v>       0.12500000       0.12500000       0.02500000 </v>
   <v>       0.17500000       0.12500000       0.02500000 </v>
   <v>       0.22500000       0.12500000       0.02500000 </v>
   <v>       0.27500000       0.12500000       0.02500000 </v>
   <v>       0.32500000       0.12500000       0.02500000 </v>
   <v>       0.37500000       0.12500000       0.02500000 </v>
   <v>       0.42500000       0.12500000       0.02500000 </v>
   <v>       0.47500000       0.12500000       0.02500000 </v>
   <v>       0.17500000       0.17500000       0.02500000 </v>
   <v>       0.22500000       0.17500000       0.02500000 </v>
   <v>       0.27500000       0.17500000       0.02500000 </v>
   <v>       0.32500000       0.17500000       0.02500000 </v>
   <v>       0.37500000       0.17500000       0.02500000 </v>
   <v>       0.42500000       0.17500000       0.02500000 </v>
   <v>       0.47500000       0.17500000       0.02500000 </v>
   <v>       0.22500000       0.22500000       0.02500000 </v>
   <v>       0.27500000       0.22500000       0.02500000 </v>
   <v>       0.32500000       0.22500000       0.02500000 </v>
   <v>       0.37500000       0.22500000       0.02500000 </v>
   <v>       0.42500000       0.22500000       0.02500000 </v>
   <v>       0.47500000       0.22500000       0.02500000 </v>
   <v>       0.27500000       0.27500000       0.02500000 </v>
   <v>       0.32500000       0.27500000       0.02500000 </v>
   <v>       0.37500000       0.27500000       0.02500000 </v>
   <v>       0.42500000       0.27500000       0.02500000 </v>
   <v>       0.47500000       0.27500000       0.02500000 </v>
   <v>       0.32500000       0.32500000       0.02500000 </v>
   <v>       0.37500000       0.32500000       0.02500000 </v>
   <v>       0.42500000       0.32500000       0.02500000 </v>
   <v>       0.47500000       0.32500000       0.02500000 </v>
   <v>       0.37500000       0.37500000       0.02500000 </v>
   <v>       0.42500000       0.37500000       0.02500000 </v>
   <v>       0.47500000       0.37500000       0.02500000 </v>
   <v>       0.42500000       0.42500000       0.02500000 </v>
   <v>       0.47500000       0.42500000       0.02500000 </v>
   <v>       0.47500000       0.47500000       0.02500000 </v>
   <v>       0.02500000       0.02500000       0.07500000 </v>
   <v>       0.07500000       0.02500000       0.07500000 </v>
   <v>       0.12500000       0.02500000       0.07500000 </v>
   <v>       0.17500000       0.02500000       0.07500000 </v>
   <v>       0.22500000       0.02500000       0.07500000 </v>
   <v>       0.27500000       0.02500000       0.07500000 </v>
   <v>       0.32500000       0.02500000       0.07500000 </v>
   <v>       0.37500000       0.02500000       0.07500000 </v>
   <v>       0.42500000       0.02500000       0.07500000 </v>
   <v>       0.47500000       0.02500000       0.07500000 </v>
   <v>       0.07500000       0.07500000       0.07500000 </v>
   <v>       0.12500000       0.07500000       0.07500000 </v>
   <v>       0.17500000       0.07500000       0.07500000 </v>
   <v>       0.22500000       0.07500000       0.07500000 </v>
   <v>       0.27500000       0.07500000       0.07500000 </v>
   <v>       0.32500000       0.07500000       0.07500000 </v>
   <v>       0.37500000       0.07500000       0.07500000 </v>
   <v>       0.42500000       0.07500000       0.07500000 </v>
   <v>       0.47500000       0.07500000       0.07500000 </v>
   <v>       0.12500000       0.12500000       0.07500000 </v>
   <v>       0.17500000       0.12500000       0.07500000 </v>
   <v>       0.22500000       0.12500000       0.07500000 </v>
   <v>       0.27500000       0.12500000       0.07500000 </v>
   <v>       0.32500000       0.12500000       0.07500000 </v>
   <v>       0.37500000       0.12500000       0.07500000 </v>
   <v>       0.42500000       0.12500000       0.07500000 </v>
   <v>       0.47500000       0.12500000       0.07500000 </v>
   <v>       0.17500000       0.17500000       0.07500000 </v>
   <v>       0.22500000       0.17500000       0.07500000 </v>
   <v>       0.27500000       0.17500000       0.07500000 </v>
   <v>       0.32500000       0.17500000       0.07500000 </v>
   <v>       0.37500000       0.17500000       0.07500000 </v>
   <v>       0.42500000       0.17500000       0.07500000 </v>
   <v>       0.47500000       0.17500000       0.07500000 </v>
   <v>       0.22500000       0.22500000       0.07500000 </v>
   <v>       0.27500000       0.22500000       0.07500000 </v>
   <v>       0.32500000       0.22500000       0.07500000 </v>
   <v>       0.37500000       0.22500000       0.07500000 </v>
   <v>       0.42500000       0.22500000       0.07500000 </v>
   <v>       0.47500000       0.22500000       0.07500000 </v>
   <v>       0.27500000       0.27500000       0.07500000 </v>
   <v>       0.32500000       0.27500000       0.07500000 </v>
   <v>       0.37500000       0.27500000       0.07500000 </v>
   <v>       0.42500000       0.27500000       0.07500000 </v>
   <v>       0.47500000       0.27500000       0.07500000 </v>
   <v>       0.32500000       0.32500000       0.07500000 </v>
   <v>       0.37500000       0.32500000       0.07500000 </v>
   <v>       0.42500000       0.32500000       0.07500000 </v>
   <v>       0.47500000       0.32500000       0.07500000 </v>
   <v>       0.37500000       0.37500000       0.07500000 </v>
   <v>       0.42500000       0.37500000       0.07500000 </v>
   <v>       0.47500000       0.37500000       0.07500000 </v>
   <v>       0.42500000       0.42500000       0.07500000 </v>
   <v>       0.47500000       0.42500000       0.07500000 </v>
   <v>       0.47500000       0.47500000       0.07500000 </v>
   <v>       0.02500000       0.02500000       0.12500000 </v>
   <v>       0.07500000       0.02500000       0.12500000 </v>
   <v>       0.12500000       0.02500000       0.12500000 </v>
   <v>       0.17500000       0.02500000       0.12500000 </v>
   <v>       0.22500000       0.02500000       0.12500000 </v>
   <v>       0.27500000       0.02500000       0.12500000 </v>
   <v>       0.32500000       0.02500000       0.12500000 </v>
   <v>       0.37500000       0.02500000       0.12500000 </v>
   <v>       0.42500000       0.02500000       0.12500000 </v>
   <v>       0.47500000       0.02500000       0.12500000 </v>
   <v>       0.07500000       0.07500000       0.12500000 </v>
   <v>       0.12500000       0.07500000       0.12500000 </v>
   <v>       0.17500000       0.07500000       0.12500000 </v>
   <v>       0.22500000       0.07500000       0.12500000 </v>
   <v>       0.27500000       0.07500000       0.12500000 </v>
   <v>       0.32500000       0.07500000       0.12500000 </v>
   <v>       0.37500000       0.07500000       0.12500000 </v>
   <v>       0.42500000       0.07500000       0.12500000 </v>
   <v>       0.47500000       0.07500000       0.12500000 </v>
   <v>       0.12500000       0.12500000       0.12500000 </v>
   <v>       0.17500000       0.12500000       0.12500000 </v>
   <v>       0.22500000       0.12500000       0.12500000 </v>
   <v>       0.27500000       0.12500000       0.12500000 </v>
   <v>       0.32500000       0.12500000       0.12500000 </v>
   <v>       0.37500000       0.12500000       0.12500000 </v>
   <v>       0.42500000       0.12500000       0.12500000 </v>
   <v>       0.47500000       0.12500000       0.12500000 </v>
   <v>       0.17500000       0.17500000       0.12500000 </v>
   <v>       0.22500000       0.17500000       0.12500000 </v>
   <v>       0.27500000       0.17500000       0.12500000 </v>
   <v>       0.32500000       0.17500000       0.12500000 </v>
   <v>       0.37500000       0.17500000       0.12500000 </v>
   <v>       0.42500000       0.17500000       0.12500000 </v>
   <v>       0.47500000       0.17500000       0.12500000 </v>
   <v>       0.22500000       0.22500000       0.12500000 </v>
   <v>       0.27500000       0.22500000       0.12500000 </v>
   <v>       0.32500000       0.22500000       0.12500000 </v>
   <v>       0.37500000       0.22500000       0.12500000 </v>
   <v>       0.42500000       0.22500000       0.12500000 </v>
   <v>       0.47500000       0.22500000       0.12500000 </v>
   <v>       0.27500000       0.27500000       0.12500000 </v>
   <v>       0.32500000       0.27500000       0.12500000 </v>
   <v>       0.37500000       0.27500000       0.12500000 </v>
   <v>       0.42500000       0.27500000       0.12500000 </v>
   <v>       0.47500000       0.27500000       0.12500000 </v>
   <v>       0.32500000       0.32500000       0.12500000 </v>
   <v>       0.37500000       0.32500000       0.12500000 </v>
   <v>       0.42500000       0.32500000       0.12500000 </v>
   <v>       0.47500000       0.32500000       0.12500000 </v>
   <v>       0.37500000       0.37500000       0.12500000 </v>
   <v>       0.42500000       0.37500000       0.12500000 </v>
   <v>       0.47500000       0.37500000       0.12500000 </v>
   <v>       0.42500000       0.42500000       0.12500000 </v>
   <v>       0.47500000       0.42500000       0.12500000 </v>
   <v>       0.47500000       0.47500000       0.12500000 </v>
   <v>       0.02500000       0.02500000       0.17500000 </v>
   <v>       0.07500000       0.02500000       0.17500000 </v>
   <v>       0.12500000       0.02500000       0.17500000 </v>
   <v>       0.17500000       0.02500000       0.17500000 </v>
   <v>       0.22500000       0.02500000       0.17500000 </v>
   <v>       0.27500000       0.02500000       0.17500000 </v>
   <v>       0.32500000       0.02500000       0.17500000 </v>
   <v>       0.37500000       0.02500000       0.17500000 </v>
   <v>       0.42500000       0.02500000       0.17500000 </v>
   <v>       0.47500000       0.02500000       0.17500000 </v>
   <v>       0.07500000       0.07500000       0.17500000 </v>
   <v>       0.12500000       0.07500000       0.17500000 </v>
   <v>       0.17500000       0.07500000       0.17500000 </v>
   <v>       0.22500000       0.07500000       0.17500000 </v>
   <v>       0.27500000       0.07500000       0.17500000 </v>
   <v>       0.32500000       0.07500000       0.17500000 </v>
   <v>       0.37500000       0.07500000       0.17500000 </v>
   <v>       0.42500000       0.07500000       0.17500000 </v>
   <v>       0.47500000       0.07500000       0.17500000 </v>
   <v>       0.12500000       0.12500000       0.17500000 </v>
   <v>       0.17500000       0.12500000       0.17500000 </v>
   <v>       0.22500000       0.12500000       0.17500000 </v>
   <v>       0.27500000       0.12500000       0.17500000 </v>
   <v>       0.32500000       0.12500000       0.17500000 </v>
   <v>       0.37500000       0.12500000       0.17500000 </v>
   <v>       0.42500000       0.12500000       0.17500000 </v>
   <v>       0.47500000       0.12500000       0.17500000 </v>
   <v>       0.17500000       0.17500000       0.17500000 </v>
   <v>       0.22500000       0.17500000       0.17500000 </v>
   <v>       0.27500000       0.17500000       0.17500000 </v>
   <v>       0.32500000       0.17500000       0.17500000 </v>
   <v>       0.37500000       0.17500000       0.17500000 </v>
   <v>       0.42500000       0.17500000       0.17500000 </v>
   <v>       0.47500000       0.17500000       0.17500000 </v>
   <v>       0.22500000       0.22500000       0.17500000 </v>
   <v>       0.27500000       0.22500000       0.17500000 </v>
   <v>       0.32500000       0.22500000       0.17500000 </v>
   <v>       0.37500000       0.22500000       0.17500000 </v>
   <v>       0.42500000       0.22500000       0.17500000 </v>
   <v>       0.47500000       0.22500000       0.17500000 </v>
   <v>       0.27500000       0.27500000       0.17500000 </v>
   <v>       0.32500000       0.27500000       0.17500000 </v>
   <v>       0.37500000       0.27500000       0.17500000 </v>
   <v>       0.42500000       0.27500000       0.17500000 </v>
   <v>       0.47500000       0.27500000       0.17500000 </v>
   <v>       0.32500000       0.32500000       0.17500000 </v>
   <v>       0.37500000       0.32500000       0.17500000 </v>
   <v>       0.42500000       0.32500000       0.17500000 </v>
   <v>       0.47500000       0.32500000       0.17500000 </v>
   <v>       0.37500000       0.37500000       0.17500000 </v>
   <v>       0.42500000       0.37500000       0.17500000 </v>
   <v>       0.47500000       0.37500000       0.17500000 </v>
   <v>       0.42500000       0.42500000       0.17500000 </v>
   <v>       0.47500000       0.42500000       0.17500000 </v>
   <v>       0.47500000       0.47500000       0.17500000 </v>
   <v>       0.02500000       0.02500000       0.22500000 </v>
   <v>       0.07500000       0.02500000       0.22500000 </v>
   <v>       0.12500000       0.02500000       0.22500000 </v>
   <v>       0.17500000       0.02500000       0.22500000 </v>
   <v>       0.22500000       0.02500000       0.22500000 </v>
   <v>       0.27500000       0.02500000       0.22500000 </v>
   <v>       0.32500000       0.02500000       0.22500000 </v>
   <v>       0.37500000       0.02500000       0.22500000 </v>
   <v>       0.42500000       0.02500000       0.22500000 </v>
   <v>       0.47500000       0.02500000       0.22500000 </v>
   <v>       0.07500000       0.07500000       0.22500000 </v>
   <v>       0.12500000       0.07500000       0.22500000 </v>
   <v>       0.17500000       0.07500000       0.22500000 </v>
   <v>       0.22500000       0.07500000       0.22500000 </v>
   <v>       0.27500000       0.07500000       0.22500000 </v>
   <v>       0.32500000       0.07500000       0.22500000 </v>
   <v>       0.37500000       0.07500000       0.22500000 </v>
   <v>       0.42500000       0.07500000       0.22500000 </v>
   <v>       0.47500000       0.07500000       0.22500000 </v>
   <v>       0.12500000       0.12500000       0.22500000 </v>
   <v>       0.17500000       0.12500000       0.22500000 </v>
   <v>       0.22500000       0.12500000       0.22500000 </v>
   <v>       0.27500000       0.12500000       0.22500000 </v>
   <v>       0.32500000       0.12500000       0.22500000 </v>
   <v>       0.37500000       0.12500000       0.22500000 </v>
   <v>       0.42500000       0.12500000       0.22500000 </v>
   <v>       0.47500000       0.12500000       0.22500000 </v>
   <v>       0.17500000       0.17500000       0.22500000 </v>
   <v>       0.22500000       0.17500000       0.22500000 </v>
   <v>       0.27500000       0.17500000       0.22500000 </v>
   <v>       0.32500000       0.17500000       0.22500000 </v>
   <v>       0.37500000       0.17500000       0.22500000 </v>
   <v>       0.42500000       0.17500000       0.22500000 </v>
   <v>       0.47500000       0.17500000       0.22500000 </v>
   <v>       0.22500000       0.22500000       0.22500000 </v>
   <v>       0.27500000       0.22500000       0.22500000 </v>
   <v>       0.32500000       0.22500000       0.22500000 </v>
   <v>       0.37500000       0.22500000       0.22500000 </v>
   <v>       0.42500000       0.22500000       0.22500000 </v>
   <v>       0.47500000       0.22500000       0.22500000 </v>
   <v>       0.27500000       0.27500000       0.22500000 </v>
   <v>       0.32500000       0.27500000       0.22500000 </v>
   <v>       0.37500000       0.27500000       0.22500000 </v>
   <v>       0.42500000       0.27500000       0.22500000 </v>
   <v>       0.47500000       0.27500000       0.22500000 </v>
   <v>       0.32500000       0.32500000       0.22500000 </v>
   <v>       0.37500000       0.32500000       0.22500000 </v>
   <v>       0.42500000       0.32500000       0.22500000 </v>
   <v>       0.47500000       0.32500000       0.22500000 </v>
   <v>       0.37500000       0.37500000       0.22500000 </v>
   <v>       0.42500000       0.37500000       0.22500000 </v>
   <v>       0.47500000       0.37500000       0.22500000 </v>
   <v>       0.42500000       0.42500000       0.22500000 </v>
   <v>       0.47500000       0.42500000       0.22500000 </v>
   <v>       0.47500000       0.47500000       0.22500000 </v>
   <v>       0.02500000       0.02500000       0.27500000 </v>
   <v>       0.07500000       0.02500000       0.27500000 </v>
   <v>       0.12500000       0.02500000       0.27500000 </v>
   <v>       0.17500000       0.02500000       0.27500000 </v>
   <v>       0.22500000       0.02500000       0.27500000 </v>
   <v>       0.27500000       0.02500000       0.27500000 </v>
   <v>       0.32500000       0.02500000       0.27500000 </v>
   <v>       0.37500000       0.02500000       0.27500000 </v>
   <v>       0.42500000       0.02500000       0.27500000 </v>
   <v>       0.47500000       0.02500000       0.27500000 </v>
   <v>       0.07500000       0.07500000       0.27500000 </v>
   <v>       0.12500000       0.07500000       0.27500000 </v>
   <v>       0.17500000       0.07500000       0.27500000 </v>
   <v>       0.22500000       0.07500000       0.27500000 </v>
   <v>       0.27500000       0.07500000       0.27500000 </v>
   <v>       0.32500000       0.07500000       0.27500000 </v>
   <v>       0.37500000       0.07500000       0.27500000 </v>
   <v>       0.42500000       0.07500000       0.27500000 </v>
   <v>       0.47500000       0.07500000       0.27500000 </v>
   <v>       0.12500000       0.12500000       0.27500000 </v>
   <v>       0.17500000       0.12500000       0.27500000 </v>
   <v>       0.22500000       0.12500000       0.27500000 </v>
   <v>       0.27500000       0.12500000       0.27500000 </v>
   <v>       0.32500000       0.12500000       0.27500000 </v>
   <v>       0.37500000       0.12500000       0.27500000 </v>
   <v>       0.42500000       0.12500000       0.27500000 </v>
   <v>       0.47500000       0.12500000       0.27500000 </v>
   <v>       0.17500000       0.17500000       0.27500000 </v>
   <v>       0.22500000       0.17500000       0.27500000 </v>
   <v>       0.27500000       0.17500000       0.27500000 </v>
   <v>       0.32500000       0.17500000       0.27500000 </v>
   <v>       0.37500000       0.17500000       0.27500000 </v>
   <v>       0.42500000       0.17500000       0.27500000 </v>
   <v>       0.47500000       0.17500000       0.27500000 </v>
   <v>       0.22500000       0.22500000       0.27500000 </v>
   <v>       0.27500000       0.22500000       0.27500000 </v>
   <v>       0.32500000       0.22500000       0.27500000 </v>
   <v>       0.37500000       0.22500000       0.27500000 </v>
   <v>       0.42500000       0.22500000       0.27500000 </v>
   <v>       0.47500000       0.22500000       0.27500000 </v>
   <v>       0.27500000       0.27500000       0.27500000 </v>
   <v>       0.32500000       0.27500000       0.27500000 </v>
   <v>       0.37500000       0.27500000       0.27500000 </v>
   <v>       0.42500000       0.27500000       0.27500000 </v>
   <v>       0.47500000       0.27500000       0.27500000 </v>
   <v>       0.32500000       0.32500000       0.27500000 </v>
   <v>       0.37500000       0.32500000       0.27500000 </v>
   <v>       0.42500000       0.32500000       0.27500000 </v>
   <v>       0.47500000       0.32500000       0.27500000 </v>
   <v>       0.37500000       0.37500000       0.27500000 </v>
   <v>       0.42500000       0.37500000       0.27500000 </v>
   <v>       0.47500000       0.37500000       0.27500000 </v>
   <v>       0.42500000       0.42500000       0.27500000 </v>
   <v>       0.47500000       0.42500000       0.27500000 </v>
   <v>       0.47500000       0.47500000       0.27500000 </v>
   <v>       0.02500000       0.02500000       0.32500000 </v>
   <v>       0.07500000       0.02500000       0.32500000 </v>
   <v>       0.12500000       0.02500000       0.32500000 </v>
   <v>       0.17500000       0.02500000       0.32500000 </v>
   <v>       0.22500000       0.02500000       0.32500000 </v>
   <v>       0.27500000       0.02500000       0.32500000 </v>
   <v>       0.32500000       0.02500000       0.32500000 </v>
   <v>       0.37500000       0.02500000       0.32500000 </v>
   <v>       0.42500000       0.02500000       0.32500000 </v>
   <v>       0.47500000       0.02500000       0.32500000 </v>
   <v>       0.07500000       0.07500000       0.32500000 </v>
   <v>       0.12500000       0.07500000       0.32500000 </v>
   <v>       0.17500000       0.07500000       0.32500000 </v>
   <v>       0.22500000       0.07500000       0.32500000 </v>
   <v>       0.27500000       0.07500000       0.32500000 </v>
   <v>       0.32500000       0.07500000       0.32500000 </v>
   <v>       0.37500000       0.07500000       0.32500000 </v>
   <v>       0.42500000       0.07500000       0.32500000 </v>
   <v>       0.47500000       0.07500000       0.32500000 </v>
   <v>       0.12500000       0.12500000       0.32500000 </v>
   <v>       0.17500000       0.12500000       0.32500000 </v>
   <v>       0.22500000       0.12500000       0.32500000 </v>
   <v>       0.27500000       0.12500000       0.32500000 </v>
   <v>       0.32500000       0.12500000       0.32500000 </v>
   <v>       0.37500000       0.12500000       0.32500000 </v>
   <v>       0.42500000       0.12500000       0.32500000 </v>
   <v>       0.47500000       0.12500000       0.32500000 </v>
   <v>       0.17500000       0.17500000       0.32500000 </v>
   <v>       0.22500000       0.17500000       0.32500000 </v>
   <v>       0.27500000       0.17500000       0.32500000 </v>
   <v>       0.32500000       0.17500000       0.32500000 </v>
   <v>       0.37500000       0.17500000       0.32500000 </v>
   <v>       0.42500000       0.17500000       0.32500000 </v>
   <v>       0.47500000       0.17500000       0.32500000 </v>
   <v>       0.22500000       0.22500000       0.32500000 </v>
   <v>       0.27500000       0.22500000       0.32500000 </v>
   <v>       0.32500000       0.22500000       0.32500000 </v>
   <v>       0.37500000       0.22500000       0.32500000 </v>
   <v>       0.42500000       0.22500000       0.32500000 </v>
   <v>       0.47500000       0.22500000       0.32500000 </v>
   <v>       0.27500000       0.27500000       0.32500000 </v>
   <v>       0.32500000       0.27500000       0.32500000 </v>
   <v>       0.37500000       0.27500000       0.32500000 </v>
   <v>       0.42500000       0.27500000       0.32500000 </v>
   <v>       0.47500000       0.27500000       0.32500000 </v>
   <v>       0.32500000       0.32500000       0.32500000 </v>
   <v>       0.37500000       0.32500000       0.32500000 </v>
   <v>       0.42500000       0.32500000       0.32500000 </v>
   <v>       0.47500000       0.32500000       0.32500000 </v>
   <v>       0.37500000       0.37500000       0.32500000 </v>
   <v>       0.42500000       0.37500000       0.32500000 </v>
   <v>       0.47500000       0.37500000       0.32500000 </v>
   <v>       0.42500000       0.42500000       0.32500000 </v>
   <v>       0.47500000       0.42500000       0.32500000 </v>
   <v>       0.47500000       0.47500000       0.32500000 </v>
   <v>       0.02500000       0.02500000       0.37500000 </v>
   <v>       0.07500000       0.02500000       0.37500000 </v>
   <v>       0.12500000       0.02500000       0.37500000 </v>
   <v>       0.17500000       0.02500000       0.37500000 </v>
   <v>       0.22500000       0.02500000       0.37500000 </v>
   <v>       0.27500000       0.02500000       0.37500000 </v>
   <v>       0.32500000       0.02500000       0.37500000 </v>
   <v>       0.37500000       0.02500000       0.37500000 </v>
   <v>       0.42500000       0.02500000       0.37500000 </v>
   <v>       0.47500000       0.02500000       0.37500000 </v>
   <v>       0.07500000       0.07500000       0.37500000 </v>
   <v>       0.12500000       0.07500000       0.37500000 </v>
   <v>       0.17500000       0.07500000       0.37500000 </v>
   <v>       0.22500000       0.07500000       0.37500000 </v>
   <v>       0.27500000       0.07500000       0.37500000 </v>
   <v>       0.32500000       0.07500000       0.37500000 </v>
   <v>       0.37500000       0.07500000       0.37500000 </v>
   <v>       0.42500000       0.07500000       0.37500000 </v>
   <v>       0.47500000       0.07500000       0.37500000 </v>
   <v>       0.12500000       0.12500000       0.37500000 </v>
   <v>       0.17500000       0.12500000       0.37500000 </v>
   <v>       0.22500000       0.12500000       0.37500000 </v>
   <v>       0.27500000       0.12500000       0.37500000 </v>
   <v>       0.32500000       0.12500000       0.37500000 </v>
   <v>       0.37500000       0.12500000       0.37500000 </v>
   <v>       0.42500000       0.12500000       0.37500000 </v>
   <v>       0.47500000       0.12500000       0.37500000 </v>
   <v>       0.17500000       0.17500000       0.37500000 </v>
   <v>       0.22500000       0.17500000       0.37500000 </v>
   <v>       0.27500000       0.17500000       0.37500000 </v>
   <v>       0.32500000       0.17500000       0.37500000 </v>
   <v>       0.37500000       0.17500000       0.37500000 </v>
   <v>       0.42500000       0.17500000       0.37500000 </v>
   <v>       0.47500000       0.17500000       0.37500000 </v>
   <v>       0.22500000       0.22500000       0.37500000 </v>
   <v>       0.27500000       0.22500000       0.37500000 </v>
   <v>       0.32500000       0.22500000       0.37500000 </v>
   <v>       0.37500000       0.22500000       0.37500000 </v>
   <v>       0.42500000       0.22500000       0.37500000 </v>
   <v>       0.47500000       0.22500000       0.37500000 </v>
   <v>       0.27500000       0.27500000       0.37500000 </v>
   <v>       0.32500000       0.27500000       0.37500000 </v>
   <v>       0.37500000       0.27500000       0.37500000 </v>
   <v>       0.42500000       0.27500000       0.37500000 </v>
   <v>       0.47500000       0.27500000       0.37500000 </v>
   <v>       0.32500000       0.32500000       0.37500000 </v>
   <v>       0.37500000       0.32500000       0.37500000 </v>
   <v>       0.42500000       0.32500000       0.37500000 </v>
   <v>       0.47500000       0.32500000       0.37500000 </v>
   <v>       0.37500000       0.37500000       0.37500000 </v>
   <v>       0.42500000       0.37500000       0.37500000 </v>
   <v>       0.47500000       0.37500000       0.37500000 </v>
   <v>       0.42500000       0.42500000       0.37500000 </v>
   <v>       0.47500000       0.42500000       0.37500000 </v>
   <v>       0.47500000       0.47500000       0.37500000 </v>
   <v>       0.02500000       0.02500000       0.42500000 </v>
   <v>       0.07500000       0.02500000       0.42500000 </v>
   <v>       0.12500000       0.02500000       0.42500000 </v>
   <v>       0.17500000       0.02500000       0.42500000 </v>
   <v>       0.22500000       0.02500000       0.42500000 </v>
   <v>       0.27500000       0.02500000       0.42500000 </v>
   <v>       0.32500000       0.02500000       0.42500000 </v>
   <v>       0.37500000       0.02500000       0.42500000 </v>
   <v>       0.42500000       0.02500000       0.42500000 </v>
   <v>       0.47500000       0.02500000       0.42500000 </v>
   <v>       0.07500000       0.07500000       0.42500000 </v>
   <v>       0.12500000       0.07500000       0.42500000 </v>
   <v>       0.17500000       0.07500000       0.42500000 </v>
   <v>       0.22500000       0.07500000       0.42500000 </v>
   <v>       0.27500000       0.07500000       0.42500000 </v>
   <v>       0.32500000       0.07500000       0.42500000 </v>
   <v>       0.37500000       0.07500000       0.42500000 </v>
   <v>       0.42500000       0.07500000       0.42500000 </v>
   <v>       0.47500000       0.07500000       0.42500000 </v>
   <v>       0.12500000       0.12500000       0.42500000 </v>
   <v>       0.17500000       0.12500000       0.42500000 </v>
   <v>       0.22500000       0.12500000       0.42500000 </v>
   <v>       0.27500000       0.12500000       0.42500000 </v>
   <v>       0.32500000       0.12500000       0.42500000 </v>
   <v>       0.37500000       0.12500000       0.42500000 </v>
   <v>       0.42500000       0.12500000       0.42500000 </v>
   <v>       0.47500000       0.12500000       0.42500000 </v>
   <v>       0.17500000       0.17500000       0.42500000 </v>
   <v>       0.22500000       0.17500000       0.42500000 </v>
   <v>       0.27500000       0.17500000       0.42500000 </v>
   <v>       0.32500000       0.17500000       0.42500000 </v>
   <v>       0.37500000       0.17500000       0.42500000 </v>
   <v>       0.42500000       0.17500000       0.42500000 </v>
   <v>       0.47500000       0.17500000       0.42500000 </v>
   <v>       0.22500000       0.22500000       0.42500000 </v>
   <v>       0.27500000       0.22500000       0.42500000 </v>
   <v>       0.32500000       0.22500000       0.42500000 </v>
   <v>       0.37500000       0.22500000       0.42500000 </v>
   <v>       0.42500000       0.22500000       0.42500000 </v>
   <v>       0.47500000       0.22500000       0.42500000 </v>
   <v>       0.27500000       0.27500000       0.42500000 </v>
   <v>       0.32500000       0.27500000       0.42500000 </v>
   <v>       0.37500000       0.27500000       0.42500000 </v>
   <v>       0.42500000       0.27500000       0.42500000 </v>
   <v>       0.47500000       0.27500000       0.42500000 </v>
   <v>       0.32500000       0.32500000       0.42500000 </v>
   <v>       0.37500000       0.32500000       0.42500000 </v>
   <v>       0.42500000       0.32500000       0.42500000 </v>
   <v>       0.47500000       0.32500000       0.42500000 </v>
   <v>       0.37500000       0.37500000       0.42500000 </v>
   <v>       0.42500000       0.37500000       0.42500000 </v>
   <v>       0.47500000       0.37500000       0.42500000 </v>
   <v>       0.42500000       0.42500000       0.42500000 </v>
   <v>       0.47500000       0.42500000       0.42500000 </v>
   <v>       0.47500000       0.47500000       0.42500000 </v>
   <v>       0.02500000       0.02500000       0.47500000 </v>
   <v>       0.07500000       0.02500000       0.47500000 </v>
   <v>       0.12500000       0.02500000       0.47500000 </v>
   <v>       0.17500000       0.02500000       0.47500000 </v>
   <v>       0.22500000       0.02500000       0.47500000 </v>
   <v>       0.27500000       0.02500000       0.47500000 </v>
   <v>       0.32500000       0.02500000       0.47500000 </v>
   <v>       0.37500000       0.02500000       0.47500000 </v>
   <v>       0.42500000       0.02500000       0.47500000 </v>
   <v>       0.47500000       0.02500000       0.47500000 </v>
   <v>       0.07500000       0.07500000       0.47500000 </v>
   <v>       0.12500000       0.07500000       0.47500000 </v>
   <v>       0.17500000       0.07500000       0.47500000 </v>
   <v>       0.22500000       0.07500000       0.47500000 </v>
   <v>       0.27500000       0.07500000       0.47500000 </v>
   <v>       0.32500000       0.07500000       0.47500000 </v>
   <v>       0.37500000       0.07500000       0.47500000 </v>
   <v>       0.42500000       0.07500000       0.47500000 </v>
   <v>       0.47500000       0.07500000       0.47500000 </v>
   <v>       0.12500000       0.12500000       0.47500000 </v>
   <v>       0.17500000       0.12500000       0.47500000 </v>
   <v>       0.22500000       0.12500000       0.47500000 </v>
   <v>       0.27500000       0.12500000       0.47500000 </v>
   <v>       0.32500000       0.12500000       0.47500000 </v>
   <v>       0.37500000       0.12500000       0.47500000 </v>
   <v>       0.42500000       0.12500000       0.47500000 </v>
   <v>       0.47500000       0.12500000       0.47500000 </v>
   <v>       0.17500000       0.17500000       0.47500000 </v>
   <v>       0.22500000       0.17500000       0.47500000 </v>
   <v>       0.27500000       0.17500000       0.47500000 </v>
   <v>       0.32500000       0.17500000       0.47500000 </v>
   <v>       0.37500000       0.17500000       0.47500000 </v>
   <v>       0.42500000       0.17500000       0.47500000 </v>
   <v>       0.47500000       0.17500000       0.47500000 </v>
   <v>       0.22500000       0.22500000       0.47500000 </v>
   <v>       0.27500000       0.22500000       0.47500000 </v>
   <v>       0.32500000       0.22500000       0.47500000 </v>
   <v>       0.37500000       0.22500000       0.47500000 </v>
   <v>       0.42500000       0.22500000       0.47500000 </v>
   <v>       0.47500000       0.22500000       0.47500000 </v>
   <v>       0.27500000       0.27500000       0.47500000 </v>
   <v>       0.32500000       0.27500000       0.47500000 </v>
   <v>       0.37500000       0.27500000       0.47500000 </v>
   <v>       0.42500000       0.27500000       0.47500000 </v>
   <v>       0.47500000       0.27500000       0.47500000 </v>
   <v>       0.32500000       0.32500000       0.47500000 </v>
   <v>       0.37500000       0.32500000       0.47500000 </v>
   <v>       0.42500000       0.32500000       0.47500000 </v>
   <v>       0.47500000       0.32500000       0.47500000 </v>
   <v>       0.37500000       0.37500000       0.47500000 </v>
   <v>       0.42500000       0.37500000       0.47500000 </v>
   <v>       0.47500000       0.37500000       0.47500000 </v>
   <v>       0.42500000       0.42500000       0.47500000 </v>
   <v>       0.47500000       0.42500000       0.47500000 </v>
   <v>       0.47500000       0.47500000       0.47500000 </v>
  </varray>
  <varray name="weights" >
   <v>       0.00100000 </v>
   <v>       0.00200000 </v>
   <v>       0.00200000 </v>
   <v>       0.00200000 </v>
   <v>       0.00200000 </v>
   <v>       0.00200000 </v>
   <v>       0.00200000 </v>
   <v>       0.00200000 </v>
   <v>       0.00200000 </v>
   <v>       0.00200000 </v>
   <v>       0.00100000 </v>
   <v>       0.00200000 </v>
   <v>       0.00200000 </v>
   <v>       0.00200000 </v>
   <v>       0.00200000 </v>
   <v>       0.00200000 </v>
   <v>       0.00200000 </v>
   <v>       0.00200000 </v>
   <v>       0.00200000 </v>
   <v>       0.00100000 </v>
   <v>       0.00200000 </v>
   <v>       0.00200000 </v>
   <v>       0.00200000 </v>
   <v>       0.00200000 </v>
   <v>       0.00200000 </v>
   <v>       0.00200000 </v>
   <v>       0.00200000 </v>
   <v>       0.00100000 </v>
   <v>       0.00200000 </v>
   <v>       0.00200000 </v>
   <v>       0.00200000 </v>
   <v>       0.00200000 </v>
   <v>       0.00200000 </v>
   <v>       0.00200000 </v>
   <v>       0.00100000 </v>
   <v>       0.00200000 </v>
   <v>       0.00200000 </v>
   <v>       0.00200000 </v>
   <v>       0.00200000 </v>
   <v>       0.00200000 </v>
   <v>       0.00100000 </v>
   <v>       0.00200000 </v>
   <v>       0.00200000 </v>
   <v>       0.00200000 </v>
   <v>       0.00200000 </v>
   <v>       0.00100000 </v>
   <v>       0.00200000 </v>
   <v>       0.00200000 </v>
   <v>       0.00200000 </v>
   <v>       0.00100000 </v>
   <v>       0.00200000 </v>
   <v>       0.00200000 </v>
   <v>       0.00100000 </v>
   <v>       0.00200000 </v>
   <v>       0.00100000 </v>
   <v>       0.00100000 </v>
   <v>       0.00200000 </v>
   <v>       0.00200000 </v>
   <v>       0.00200000 </v>
   <v>       0.00200000 </v>
   <v>       0.00200000 </v>
   <v>       0.00200000 </v>
   <v>       0.00200000 </v>
   <v>       0.00200000 </v>
   <v>       0.00200000 </v>
   <v>       0.00100000 </v>
   <v>       0.00200000 </v>
   <v>       0.00200000 </v>
   <v>       0.00200000 </v>
   <v>       0.00200000 </v>
   <v>       0.00200000 </v>
   <v>       0.00200000 </v>
   <v>       0.00200000 </v>
   <v>       0.00200000 </v>
   <v>       0.00100000 </v>
   <v>       0.00200000 </v>
   <v>       0.00200000 </v>
   <v>       0.00200000 </v>
   <v>       0.00200000 </v>
   <v>       0.00200000 </v>
   <v>       0.00200000 </v>
   <v>       0.00200000 </v>
   <v>       0.00100000 </v>
   <v>       0.00200000 </v>
   <v>       0.00200000 </v>
   <v>       0.00200000 </v>
   <v>       0.00200000 </v>
   <v>       0.00200000 </v>
   <v>       0.00200000 </v>
   <v>       0.00100000 </v>
   <v>       0.00200000 </v>
   <v>       0.00200000 </v>
   <v>       0.00200000 </v>
   <v>       0.00200000 </v>
   <v>       0.00200000 </v>
   <v>       0.00100000 </v>
   <v>       0.00200000 </v>
   <v>       0.00200000 </v>
   <v>       0.00200000 </v>
   <v>       0.00200000 </v>
   <v>       0.00100000 </v>
   <v>       0.00200000 </v>
   <v>       0.00200000 </v>
   <v>       0.00200000 </v>
   <v>       0.00100000 </v>
   <v>       0.00200000 </v>
   <v>       0.00200000 </v>
   <v>       0.00100000 </v>
   <v>       0.00200000 </v>
   <v>       0.00100000 </v>
   <v>       0.00100000 </v>
   <v>       0.00200000 </v>
   <v>       0.00200000 </v>
   <v>       0.00200000 </v>
   <v>       0.00200000 </v>
   <v>       0.00200000 </v>
   <v>       0.00200000 </v>
   <v>       0.00200000 </v>
   <v>       0.00200000 </v>
   <v>       0.00200000 </v>
   <v>       0.00100000 </v>
   <v>       0.00200000 </v>
   <v>       0.00200000 </v>
   <v>       0.00200000 </v>
   <v>       0.00200000 </v>
   <v>       0.00200000 </v>
   <v>       0.00200000 </v>
   <v>       0.00200000 </v>
   <v>       0.00200000 </v>
   <v>       0.00100000 </v>
   <v>       0.00200000 </v>
   <v>       0.00200000 </v>
   <v>       0.00200000 </v>
   <v>       0.00200000 </v>
   <v>       0.00200000 </v>
   <v>       0.00200000 </v>
   <v>       0.00200000 </v>
   <v>       0.00100000 </v>
   <v>       0.00200000 </v>
   <v>       0.00200000 </v>
   <v>       0.00200000 </v>
   <v>       0.00200000 </v>
   <v>       0.00200000 </v>
   <v>       0.00200000 </v>
   <v>       0.00100000 </v>
   <v>       0.00200000 </v>
   <v>       0.00200000 </v>
   <v>       0.00200000 </v>
   <v>       0.00200000 </v>
   <v>       0.00200000 </v>
   <v>       0.00100000 </v>
   <v>       0.00200000 </v>
   <v>       0.00200000 </v>
   <v>       0.00200000 </v>
   <v>       0.00200000 </v>
   <v>       0.00100000 </v>
   <v>       0.00200000 </v>
   <v>       0.00200000 </v>
   <v>       0.00200000 </v>
   <v>       0.00100000 </v>
   <v>       0.00200000 </v>
   <v>       0.00200000 </v>
   <v>       0.00100000 </v>
   <v>       0.00200000 </v>
   <v>       0.00100000 </v>
   <v>       0.00100000 </v>
   <v>       0.00200000 </v>
   <v>       0.00200000 </v>
   <v>       0.00200000 </v>
   <v>       0.00200000 </v>
   <v>       0.00200000 </v>
   <v>       0.00200000 </v>
   <v>       0.00200000 </v>
   <v>       0.00200000 </v>
   <v>       0.00200000 </v>
   <v>       0.00100000 </v>
   <v>       0.00200000 </v>
   <v>       0.00200000 </v>
   <v>       0.00200000 </v>
   <v>       0.00200000 </v>
   <v>       0.00200000 </v>
   <v>       0.00200000 </v>
   <v>       0.00200000 </v>
   <v>       0.00200000 </v>
   <v>       0.00100000 </v>
   <v>       0.00200000 </v>
   <v>       0.00200000 </v>
   <v>       0.00200000 </v>
   <v>       0.00200000 </v>
   <v>       0.00200000 </v>
   <v>       0.00200000 </v>
   <v>       0.00200000 </v>
   <v>       0.00100000 </v>
   <v>       0.00200000 </v>
   <v>       0.00200000 </v>
   <v>       0.00200000 </v>
   <v>       0.00200000 </v>
   <v>       0.00200000 </v>
   <v>       0.00200000 </v>
   <v>       0.00100000 </v>
   <v>       0.00200000 </v>
   <v>       0.00200000 </v>
   <v>       0.00200000 </v>
   <v>       0.00200000 </v>
   <v>       0.00200000 </v>
   <v>       0.00100000 </v>
   <v>       0.00200000 </v>
   <v>       0.00200000 </v>
   <v>       0.00200000 </v>
   <v>       0.00200000 </v>
   <v>       0.00100000 </v>
   <v>       0.00200000 </v>
   <v>       0.00200000 </v>
   <v>       0.00200000 </v>
   <v>       0.00100000 </v>
   <v>       0.00200000 </v>
   <v>       0.00200000 </v>
   <v>       0.00100000 </v>
   <v>       0.00200000 </v>
   <v>       0.00100000 </v>
   <v>       0.00100000 </v>
   <v>       0.00200000 </v>
   <v>       0.00200000 </v>
   <v>       0.00200000 </v>
   <v>       0.00200000 </v>
   <v>       0.00200000 </v>
   <v>       0.00200000 </v>
   <v>       0.00200000 </v>
   <v>       0.00200000 </v>
   <v>       0.00200000 </v>
   <v>       0.00100000 </v>
   <v>       0.00200000 </v>
   <v>       0.00200000 </v>
   <v>       0.00200000 </v>
   <v>       0.00200000 </v>
   <v>       0.00200000 </v>
   <v>       0.00200000 </v>
   <v>       0.00200000 </v>
   <v>       0.00200000 </v>
   <v>       0.00100000 </v>
   <v>       0.00200000 </v>
   <v>       0.00200000 </v>
   <v>       0.00200000 </v>
   <v>       0.00200000 </v>
   <v>       0.00200000 </v>
   <v>       0.00200000 </v>
   <v>       0.00200000 </v>
   <v>       0.00100000 </v>
   <v>       0.00200000 </v>
   <v>       0.00200000 </v>
   <v>       0.00200000 </v>
   <v>       0.00200000 </v>
   <v>       0.00200000 </v>
   <v>       0.00200000 </v>
   <v>       0.00100000 </v>
   <v>       0.00200000 </v>
   <v>       0.00200000 </v>
   <v>       0.00200000 </v>
   <v>       0.00200000 </v>
   <v>       0.00200000 </v>
   <v>       0.00100000 </v>
   <v>       0.00200000 </v>
   <v>       0.00200000 </v>
   <v>       0.00200000 </v>
   <v>       0.00200000 </v>
   <v>       0.00100000 </v>
   <v>       0.00200000 </v>
   <v>       0.00200000 </v>
   <v>       0.00200000 </v>
   <v>       0.00100000 </v>
   <v>       0.00200000 </v>
   <v>       0.00200000 </v>
   <v>       0.00100000 </v>
   <v>       0.00200000 </v>
   <v>       0.00100000 </v>
   <v>       0.00100000 </v>
   <v>       0.00200000 </v>
   <v>       0.00200000 </v>
   <v>       0.00200000 </v>
   <v>       0.00200000 </v>
   <v>       0.00200000 </v>
   <v>       0.00200000 </v>
   <v>       0.00200000 </v>
   <v>       0.00200000 </v>
   <v>       0.00200000 </v>
   <v>       0.00100000 </v>
   <v>       0.00200000 </v>
   <v>       0.00200000 </v>
   <v>       0.00200000 </v>
   <v>       0.00200000 </v>
   <v>       0.00200000 </v>
   <v>       0.00200000 </v>
   <v>       0.00200000 </v>
   <v>       0.00200000 </v>
   <v>       0.00100000 </v>
   <v>       0.00200000 </v>
   <v>       0.00200000 </v>
   <v>       0.00200000 </v>
   <v>       0.00200000 </v>
   <v>       0.00200000 </v>
   <v>       0.00200000 </v>
   <v>       0.00200000 </v>
   <v>       0.00100000 </v>
   <v>       0.00200000 </v>
   <v>       0.00200000 </v>
   <v>       0.00200000 </v>
   <v>       0.00200000 </v>
   <v>       0.00200000 </v>
   <v>       0.00200000 </v>
   <v>       0.00100000 </v>
   <v>       0.00200000 </v>
   <v>       0.00200000 </v>
   <v>       0.00200000 </v>
   <v>       0.00200000 </v>
   <v>       0.00200000 </v>
   <v>       0.00100000 </v>
   <v>       0.00200000 </v>
   <v>       0.00200000 </v>
   <v>       0.00200000 </v>
   <v>       0.00200000 </v>
   <v>       0.00100000 </v>
   <v>       0.00200000 </v>
   <v>       0.00200000 </v>
   <v>       0.00200000 </v>
   <v>       0.00100000 </v>
   <v>       0.00200000 </v>
   <v>       0.00200000 </v>
   <v>       0.00100000 </v>
   <v>       0.00200000 </v>
   <v>       0.00100000 </v>
   <v>       0.00100000 </v>
   <v>       0.00200000 </v>
   <v>       0.00200000 </v>
   <v>       0.00200000 </v>
   <v>       0.00200000 </v>
   <v>       0.00200000 </v>
   <v>       0.00200000 </v>
   <v>       0.00200000 </v>
   <v>       0.00200000 </v>
   <v>       0.00200000 </v>
   <v>       0.00100000 </v>
   <v>       0.00200000 </v>
   <v>       0.00200000 </v>
   <v>       0.00200000 </v>
   <v>       0.00200000 </v>
   <v>       0.00200000 </v>
   <v>       0.00200000 </v>
   <v>       0.00200000 </v>
   <v>       0.00200000 </v>
   <v>       0.00100000 </v>
   <v>       0.00200000 </v>
   <v>       0.00200000 </v>
   <v>       0.00200000 </v>
   <v>       0.00200000 </v>
   <v>       0.00200000 </v>
   <v>       0.00200000 </v>
   <v>       0.00200000 </v>
   <v>       0.00100000 </v>
   <v>       0.00200000 </v>
   <v>       0.00200000 </v>
   <v>       0.00200000 </v>
   <v>       0.00200000 </v>
   <v>       0.00200000 </v>
   <v>       0.00200000 </v>
   <v>       0.00100000 </v>
   <v>       0.00200000 </v>
   <v>       0.00200000 </v>
   <v>       0.00200000 </v>
   <v>       0.00200000 </v>
   <v>       0.00200000 </v>
   <v>       0.00100000 </v>
   <v>       0.00200000 </v>
   <v>       0.00200000 </v>
   <v>       0.00200000 </v>
   <v>       0.00200000 </v>
   <v>       0.00100000 </v>
   <v>       0.00200000 </v>
   <v>       0.00200000 </v>
   <v>       0.00200000 </v>
   <v>       0.00100000 </v>
   <v>       0.00200000 </v>
   <v>       0.00200000 </v>
   <v>       0.00100000 </v>
   <v>       0.00200000 </v>
   <v>       0.00100000 </v>
   <v>       0.00100000 </v>
   <v>       0.00200000 </v>
   <v>       0.00200000 </v>
   <v>       0.00200000 </v>
   <v>       0.00200000 </v>
   <v>       0.00200000 </v>
   <v>       0.00200000 </v>
   <v>       0.00200000 </v>
   <v>       0.00200000 </v>
   <v>       0.00200000 </v>
   <v>       0.00100000 </v>
   <v>       0.00200000 </v>
   <v>       0.00200000 </v>
   <v>       0.00200000 </v>
   <v>       0.00200000 </v>
   <v>       0.00200000 </v>
   <v>       0.00200000 </v>
   <v>       0.00200000 </v>
   <v>       0.00200000 </v>
   <v>       0.00100000 </v>
   <v>       0.00200000 </v>
   <v>       0.00200000 </v>
   <v>       0.00200000 </v>
   <v>       0.00200000 </v>
   <v>       0.00200000 </v>
   <v>       0.00200000 </v>
   <v>       0.00200000 </v>
   <v>       0.00100000 </v>
   <v>       0.00200000 </v>
   <v>       0.00200000 </v>
   <v>       0.00200000 </v>
   <v>       0.00200000 </v>
   <v>       0.00200000 </v>
   <v>       0.00200000 </v>
   <v>       0.00100000 </v>
   <v>       0.00200000 </v>
   <v>       0.00200000 </v>
   <v>       0.00200000 </v>
   <v>       0.00200000 </v>
   <v>       0.00200000 </v>
   <v>       0.00100000 </v>
   <v>       0.00200000 </v>
   <v>       0.00200000 </v>
   <v>       0.00200000 </v>
   <v>       0.00200000 </v>
   <v>       0.00100000 </v>
   <v>       0.00200000 </v>
   <v>       0.00200000 </v>
   <v>       0.00200000 </v>
   <v>       0.00100000 </v>
   <v>       0.00200000 </v>
   <v>       0.00200000 </v>
   <v>       0.00100000 </v>
   <v>       0.00200000 </v>
   <v>       0.00100000 </v>
   <v>       0.00100000 </v>
   <v>       0.00200000 </v>
   <v>       0.00200000 </v>
   <v>       0.00200000 </v>
   <v>       0.00200000 </v>
   <v>       0.00200000 </v>
   <v>       0.00200000 </v>
   <v>       0.00200000 </v>
   <v>       0.00200000 </v>
   <v>       0.00200000 </v>
   <v>       0.00100000 </v>
   <v>       0.00200000 </v>
   <v>       0.00200000 </v>
   <v>       0.00200000 </v>
   <v>       0.00200000 </v>
   <v>       0.00200000 </v>
   <v>       0.00200000 </v>
   <v>       0.00200000 </v>
   <v>       0.00200000 </v>
   <v>       0.00100000 </v>
   <v>       0.00200000 </v>
   <v>       0.00200000 </v>
   <v>       0.00200000 </v>
   <v>       0.00200000 </v>
   <v>       0.00200000 </v>
   <v>       0.00200000 </v>
   <v>       0.00200000 </v>
   <v>       0.00100000 </v>
   <v>       0.00200000 </v>
   <v>       0.00200000 </v>
   <v>       0.00200000 </v>
   <v>       0.00200000 </v>
   <v>       0.00200000 </v>
   <v>       0.00200000 </v>
   <v>       0.00100000 </v>
   <v>       0.00200000 </v>
   <v>       0.00200000 </v>
   <v>       0.00200000 </v>
   <v>       0.00200000 </v>
   <v>       0.00200000 </v>
   <v>       0.00100000 </v>
   <v>       0.00200000 </v>
   <v>       0.00200000 </v>
   <v>       0.00200000 </v>
   <v>       0.00200000 </v>
   <v>       0.00100000 </v>
   <v>       0.00200000 </v>
   <v>       0.00200000 </v>
   <v>       0.00200000 </v>
   <v>       0.00100000 </v>
   <v>       0.00200000 </v>
   <v>       0.00200000 </v>
   <v>       0.00100000 </v>
   <v>       0.00200000 </v>
   <v>       0.00100000 </v>
   <v>       0.00100000 </v>
   <v>       0.00200000 </v>
   <v>       0.00200000 </v>
   <v>       0.00200000 </v>
   <v>       0.00200000 </v>
   <v>       0.00200000 </v>
   <v>       0.00200000 </v>
   <v>       0.00200000 </v>
   <v>       0.00200000 </v>
   <v>       0.00200000 </v>
   <v>       0.00100000 </v>
   <v>       0.00200000 </v>
   <v>       0.00200000 </v>
   <v>       0.00200000 </v>
   <v>       0.00200000 </v>
   <v>       0.00200000 </v>
   <v>       0.00200000 </v>
   <v>       0.00200000 </v>
   <v>       0.00200000 </v>
   <v>       0.00100000 </v>
   <v>       0.00200000 </v>
   <v>       0.00200000 </v>
   <v>       0.00200000 </v>
   <v>       0.00200000 </v>
   <v>       0.00200000 </v>
   <v>       0.00200000 </v>
   <v>       0.00200000 </v>
   <v>       0.00100000 </v>
   <v>       0.00200000 </v>
   <v>       0.00200000 </v>
   <v>       0.00200000 </v>
   <v>       0.00200000 </v>
   <v>       0.00200000 </v>
   <v>       0.00200000 </v>
   <v>       0.00100000 </v>
   <v>       0.00200000 </v>
   <v>       0.00200000 </v>
   <v>       0.00200000 </v>
   <v>       0.00200000 </v>
   <v>       0.00200000 </v>
   <v>       0.00100000 </v>
   <v>       0.00200000 </v>
   <v>       0.00200000 </v>
   <v>       0.00200000 </v>
   <v>       0.00200000 </v>
   <v>       0.00100000 </v>
   <v>       0.00200000 </v>
   <v>       0.00200000 </v>
   <v>       0.00200000 </v>
   <v>       0.00100000 </v>
   <v>       0.00200000 </v>
   <v>       0.00200000 </v>
   <v>       0.00100000 </v>
   <v>       0.00200000 </v>
   <v>       0.00100000 </v>
  </varray>
 </kpoints>
 <parameters>
  <separator name="general" >
   <i type="string" name="SYSTEM">Al fcc relaxation</i>
   <i type="logical" name="LCOMPAT"> F  </i>
  </separator>
  <separator name="electronic" >
   <i type="string" name="PREC">accura</i>
   <i name="ENMAX">    400.00000000</i>
   <i name="ENAUG">    291.05200000</i>
   <i name="EDIFF">      0.00000100</i>
   <i type="int" name="IALGO">    68</i>
   <i type="int" name="IWAVPR">    11</i>
   <i type="int" name="NBANDS">    14</i>
   <i type="int" name="NBANDSLOW">    -1</i>
   <i type="int" name="NBANDSHIGH">    -1</i>
   <i name="NELECT">     12.00000000</i>
   <i type="int" name="TURBO">     0</i>
   <i type="int" name="IRESTART">     0</i>
   <i type="int" name="NREBOOT">     0</i>
   <i type="int" name="NMIN">     0</i>
   <i name="EREF">      0.00000000</i>
   <separator name="electronic smearing" >
    <i type="int" name="ISMEAR">     1</i>
    <i name="SIGMA">      0.20000000</i>
    <i name="KSPACING">      0.08000000</i>
    <i type="logical" name="KGAMMA"> T  </i>
    <i type="logical" name="KBLOWUP"> T  </i>
   </separator>
   <separator name="electronic projectors" >
    <i type="logical" name="LREAL"> T  </i>
    <v name="ROPT">     -0.00025000</v>
    <i type="int" name="LMAXPAW">  -100</i>
    <i type="int" name="LMAXMIX">     2</i>
    <i type="logical" name="NLSPLINE"> F  </i>
   </separator>
   <separator name="electronic startup" >
    <i type="int" name="ISTART">     0</i>
    <i type="int" name="ICHARG">     2</i>
    <i type="int" name="INIWAV">     1</i>
   </separator>
   <separator name="electronic spin" >
    <i type="int" name="ISPIN">     1</i>
    <i type="logical" name="LNONCOLLINEAR"> F  </i>
    <v name="MAGMOM">      1.00000000      1.00000000      1.00000000      1.00000000</v>
    <i name="NUPDOWN">     -1.00000000</i>
    <i type="logical" name="LSORBIT"> F  </i>
    <v name="SAXIS">      0.00000000      0.00000000      1.00000000</v>
    <i type="logical" name="LSPIRAL"> F  </i>
    <v name="QSPIRAL">      0.00000000      0.00000000      0.00000000</v>
    <i type="logical" name="LZEROZ"> F  </i>
   </separator>
   <separator name="electronic exchange-correlation" >
    <i type="logical" name="LASPH"> F  </i>
    <i type="logical" name="LMETAGGA"> F  </i>
   </separator>
   <separator name="electronic convergence" >
    <i type="int" name="NELM">    60</i>
    <i type="int" name="NELMDL">    -5</i>
    <i type="int" name="NELMIN">     4</i>
    <i name="ENINI">    400.00000000</i>
    <separator name="electronic convergence detail" >
     <i type="logical" name="LDIAG"> T  </i>
     <i type="logical" name="LSUBROT"> F  </i>
     <i name="WEIMIN">      0.00100000</i>
     <i name="EBREAK">      0.00000002</i>
     <i name="DEPER">      0.30000000</i>
     <i type="int" name="NRMM">     4</i>
     <i name="TIME">      0.40000000</i>
    </separator>
   </separator>
   <separator name="electronic mixer" >
    <i name="AMIX">      0.40000000</i>
    <i name="BMIX">      1.00000000</i>
    <i name="AMIN">      0.10000000</i>
    <i name="AMIX_MAG">      1.60000000</i>
    <i name="BMIX_MAG">      1.00000000</i>
    <separator name="electronic mixer details" >
     <i type="int" name="IMIX">     4</i>
     <i type="logical" name="MIXFIRST"> F  </i>
     <i type="int" name="MAXMIX">   -45</i>
     <i name="WC">    100.00000000</i>
     <i type="int" name="INIMIX">     1</i>
     <i type="int" name="MIXPRE">     1</i>
     <i type="int" name="MREMOVE">     5</i>
    </separator>
   </separator>
   <separator name="electronic dipolcorrection" >
    <i type="logical" name="LDIPOL"> F  </i>
    <i type="logical" name="LMONO"> F  </i>
    <i type="int" name="IDIPOL">     0</i>
    <i name="EPSILON">      1.00000000</i>
    <v name="DIPOL">   -100.00000000   -100.00000000   -100.00000000</v>
    <i name="EFIELD">      0.00000000</i>
   </separator>
  </separator>
  <separator name="grids" >
   <i type="int" name="NGX">    28</i>
   <i type="int" name="NGY">    28</i>
   <i type="int" name="NGZ">    28</i>
   <i type="int" name="NGXF">    56</i>
   <i type="int" name="NGYF">    56</i>
   <i type="int" name="NGZF">    56</i>
   <i type="logical" name="ADDGRID"> F  </i>
  </separator>
  <separator name="ionic" >
   <i type="int" name="NSW">   100</i>
   <i type="int" name="IBRION">     2</i>
   <i type="int" name="MDALGO">     0</i>
   <i type="int" name="ISIF">     2</i>
   <i name="PSTRESS">      0.00000000</i>
   <i name="EDIFFG">      0.00001000</i>
   <i type="int" name="NFREE">     1</i>
   <i name="POTIM">      0.50000000</i>
   <i name="SMASS">     -3.00000000</i>
   <i name="SCALEE">      1.00000000</i>
  </separator>
  <separator name="ionic md" >
   <i name="TEBEG">      0.00010000</i>
   <i name="TEEND">      0.00010000</i>
   <i type="int" name="NBLOCK">     1</i>
   <i type="int" name="KBLOCK">   100</i>
   <i type="int" name="NPACO">   256</i>
   <i name="APACO">     10.00000000</i>
  </separator>
  <separator name="symmetry" >
   <i type="int" name="ISYM">     2</i>
   <i name="SYMPREC">      0.00001000</i>
  </separator>
  <separator name="dos" >
   <i type="int" name="LORBIT">     0</i>
   <v name="RWIGS">     -1.00000000</v>
   <i type="int" name="NEDOS">   301</i>
   <i name="EMIN">     10.00000000</i>
   <i name="EMAX">    -10.00000000</i>
   <i name="EFERMI">      0.00000000</i>
  </separator>
  <separator name="writing" >
   <i type="int" name="NWRITE">     2</i>
   <i type="logical" name="LWAVE"> F  </i>
   <i type="logical" name="LDOWNSAMPLE"> F  </i>
   <i type="logical" name="LCHARG"> F  </i>
   <i type="logical" name="LPARD"> F  </i>
   <i type="logical" name="LVTOT"> F  </i>
   <i type="logical" name="LVHAR"> F  </i>
   <i type="logical" name="LELF"> F  </i>
   <i type="logical" name="LOPTICS"> F  </i>
   <v name="STM">      0.00000000      0.00000000      0.00000000      0.00000000      0.00000000      0.00000000      0.00000000</v>
  </separator>
  <separator name="performance" >
   <i type="int" name="NPAR">    14</i>
   <i type="int" name="NSIM">     4</i>
   <i type="int" name="NBLK">    -1</i>
   <i type="logical" name="LPLANE"> T  </i>
   <i type="logical" name="LSCALAPACK"> T  </i>
   <i type="logical" name="LSCAAWARE"> F  </i>
   <i type="logical" name="LSCALU"> F  </i>
   <i type="logical" name="LASYNC"> F  </i>
   <i type="logical" name="LORBITALREAL"> F  </i>
  </separator>
  <separator name="miscellaneous" >
   <i type="int" name="IDIOT">     3</i>
   <i type="int" name="PHON_NSTRUCT">    -1</i>
   <i type="logical" name="LMUSIC"> F  </i>
   <v name="POMASS">     26.98100000</v>
   <v name="DARWINR">      0.00000000</v>
   <v name="DARWINV">      1.00000000</v>
   <i type="logical" name="LCORR"> T  </i>
  </separator>
  <i type="logical" name="GGA_COMPAT"> T  </i>
  <i type="logical" name="LBERRY"> F  </i>
  <i type="int" name="ICORELEVEL">     0</i>
  <i type="logical" name="LDAU"> F  </i>
  <i type="int" name="I_CONSTRAINED_M">     0</i>
  <separator name="electronic exchange-correlation" >
   <i type="string" name="GGA">--</i>
   <i type="int" name="VOSKOWN">     0</i>
   <i type="logical" name="LHFCALC"> F  </i>
   <i type="string" name="PRECFOCK"></i>
   <i type="logical" name="LSYMGRAD"> F  </i>
   <i type="logical" name="LHFONE"> F  </i>
   <i type="logical" name="LRHFCALC"> F  </i>
   <i type="logical" name="LTHOMAS"> F  </i>
   <i type="logical" name="LMODELHF"> F  </i>
   <i type="logical" name="LFOCKACE"> F  </i>
   <i name="ENCUT4O">     -1.00000000</i>
   <i type="int" name="EXXOEP">     0</i>
   <i type="int" name="FOURORBIT">     0</i>
   <i name="AEXX">      0.00000000</i>
   <i name="HFALPHA">      0.00000000</i>
   <i name="MCALPHA">      0.00000000</i>
   <i name="ALDAX">      1.00000000</i>
   <i name="AGGAX">      1.00000000</i>
   <i name="ALDAC">      1.00000000</i>
   <i name="AGGAC">      1.00000000</i>
   <i type="int" name="NKREDX">     1</i>
   <i type="int" name="NKREDY">     1</i>
   <i type="int" name="NKREDZ">     1</i>
   <i type="logical" name="SHIFTRED"> F  </i>
   <i type="logical" name="ODDONLY"> F  </i>
   <i type="logical" name="EVENONLY"> F  </i>
   <i type="int" name="LMAXFOCK">     0</i>
   <i type="int" name="NMAXFOCKAE">     0</i>
   <i type="logical" name="LFOCKAEDFT"> F  </i>
   <i name="HFSCREEN">      0.00000000</i>
   <i name="HFSCREENC">      0.00000000</i>
   <i type="int" name="NBANDSGWLOW">     0</i>
  </separator>
  <separator name="vdW DFT" >
   <i type="logical" name="LUSE_VDW"> F  </i>
   <i type="int" name="IVDW_NL">     1</i>
   <i type="logical" name="LSPIN_VDW"> F  </i>
   <i name="Zab_VDW">     -0.84910000</i>
   <i name="PARAM1">      0.12340000</i>
   <i name="PARAM2">      1.00000000</i>
   <i name="PARAM3">      0.00000000</i>
  </separator>
  <separator name="model GW" >
   <i type="int" name="MODEL_GW">     0</i>
   <i name="MODEL_EPS0">      9.93232281</i>
   <i name="MODEL_ALPHA">      1.00000000</i>
  </separator>
  <separator name="linear response parameters" >
   <i type="logical" name="LEPSILON"> F  </i>
   <i type="logical" name="LRPA"> F  </i>
   <i type="logical" name="LNABLA"> F  </i>
   <i type="logical" name="LVEL"> F  </i>
   <i name="CSHIFT">      0.10000000</i>
   <i name="OMEGAMAX">     -1.00000000</i>
   <i name="DEG_THRESHOLD">      0.00200000</i>
   <i name="RTIME">     -0.10000000</i>
   <i name="WPLASMAI">      0.00000000</i>
   <v name="DFIELD">      0.00000000      0.00000000      0.00000000</v>
   <v name="WPLASMA">      0.00000000      0.00000000      0.00000000      0.00000000      0.00000000      0.00000000      0.00000000      0.00000000      0.00000000</v>
  </separator>
  <separator name="orbital magnetization" >
   <i type="logical" name="NUCIND"> F  </i>
   <v name="MAGPOS">      0.00000000      0.00000000      0.00000000</v>
   <i type="logical" name="LNICSALL"> T  </i>
   <i type="logical" name="ORBITALMAG"> F  </i>
   <i type="logical" name="LMAGBLOCH"> F  </i>
   <i type="logical" name="LCHIMAG"> F  </i>
   <i type="logical" name="LGAUGE"> T  </i>
   <i type="int" name="MAGATOM">     0</i>
   <v name="MAGDIPOL">      0.00000000      0.00000000      0.00000000</v>
   <v name="AVECCONST">      0.00000000      0.00000000      0.00000000</v>
  </separator>
  <separator name="response functions" >
   <i type="logical" name="LALL_IN_ONE"> F  </i>
   <i type="int" name="IALL_IN_ONE">    -1</i>
   <i type="int" name="NBANDS_WAVE">    -1</i>
   <i type="logical" name="LFINITE_TEMPERATURE"> F  </i>
   <i type="logical" name="LADDER"> F  </i>
   <i type="logical" name="LRPAFORCE"> F  </i>
   <i type="logical" name="LFXC"> F  </i>
   <i type="logical" name="LHARTREE"> T  </i>
   <i type="int" name="IBSE">     0</i>
   <v type="int" name="KPOINT">    -1     0     0     0</v>
   <i type="logical" name="LTCTC"> F  </i>
   <i type="logical" name="LTCTE"> F  </i>
   <i type="logical" name="LTETE"> F  </i>
   <i type="logical" name="LTRIPLET"> F  </i>
   <i type="logical" name="LFXCEPS"> F  </i>
   <i type="logical" name="LFXHEG"> F  </i>
   <i type="int" name="NATURALO">     2</i>
   <i type="logical" name="LHOLEGF"> F  </i>
   <i type="logical" name="L2ORDER"> F  </i>
   <i type="logical" name="LDMP1"> F  </i>
   <i type="logical" name="LMP2LT"> F  </i>
   <i type="logical" name="LSMP2LT"> F  </i>
   <i type="logical" name="LGWLF"> F  </i>
   <i name="ENCUTGW">     -1.60000002</i>
   <i name="ENCUTGWSOFT">     -1.60000002</i>
   <i name="ENCUTLF">     -1.00000000</i>
   <i type="logical" name="LESF_SPLINES"> F  </i>
   <i type="int" name="LMAXMP2">    -1</i>
   <i name="SCISSOR">      0.00000000</i>
   <i type="int" name="NOMEGA">     0</i>
   <i type="int" name="NOMEGAR">     0</i>
   <i type="int" name="NBANDSGW">    -1</i>
   <i type="int" name="NBANDSO">    -1</i>
   <i type="int" name="NBANDSV">    -1</i>
   <i type="int" name="NELMGW">     1</i>
   <i type="int" name="NELMHF">     1</i>
   <i type="int" name="DIM">     3</i>
   <i type="int" name="IESPILON">     4</i>
   <i type="int" name="ANTIRES">     0</i>
   <i name="OMEGAMAX">    -30.00000000</i>
   <i name="OMEGAMIN">    -30.00000000</i>
   <i name="OMEGATL">   -200.00000000</i>
   <i type="int" name="OMEGAGRID">     0</i>
   <i name="CSHIFT">     -0.10000000</i>
   <i type="logical" name="LSELFENERGY"> F  </i>
   <i type="logical" name="LSPECTRAL"> F  </i>
   <i type="logical" name="LSPECTRALGW"> F  </i>
   <i type="logical" name="LSINGLES"> F  </i>
   <i type="logical" name="LFERMIGW"> F  </i>
   <i type="logical" name="ODDONLYGW"> F  </i>
   <i type="logical" name="EVENONLYGW"> F  </i>
   <i type="int" name="NKREDLFX">     1</i>
   <i type="int" name="NKREDLFY">     1</i>
   <i type="int" name="NKREDLFZ">     1</i>
   <i type="int" name="MAXMEM">  2800</i>
   <i type="int" name="TELESCOPE">     0</i>
   <i type="int" name="NTAUPAR">    -1</i>
   <i type="int" name="NOMEGAPAR">    -1</i>
   <i name="DAMP_NEWTON">      0.80000001</i>
   <i name="LAMBDA">      1.00000000</i>
  </separator>
  <separator name="External order field" >
   <i name="OFIELD_KAPPA">      0.00000000</i>
   <v name="OFIELD_K">      0.00000000      0.00000000      0.00000000</v>
   <i name="OFIELD_Q6_NEAR">      0.00000000</i>
   <i name="OFIELD_Q6_FAR">      0.00000000</i>
   <i name="OFIELD_A">      0.00000000</i>
  </separator>
  <separator name="optional k-points parameters" >
   <i type="int" name="KPOINTS_OPT_MODE">     1</i>
   <i type="logical" name="LKPOINTS_OPT"> F  </i>
  </separator>
 </parameters>
 <atominfo>
  <atoms>       4 </atoms>
  <types>       1 </types>
  <array name="atoms" >
   <dimension dim="1">ion</dimension>
   <field type="string">element</field>
   <field type="int">atomtype</field>
   <set>
    <rc><c>Al</c><c>   1</c></rc>
    <rc><c>Al</c><c>   1</c></rc>
    <rc><c>Al</c><c>   1</c></rc>
    <rc><c>Al</c><c>   1</c></rc>
   </set>
  </array>
  <array name="atomtypes" >
   <dimension dim="1">type</dimension>
   <field type="int">atomspertype</field>
   <field type="string">element</field>
   <field>mass</field>
   <field>valence</field>
   <field type="string">pseudopotential</field>
   <set>
    <rc><c>   4</c><c>Al</c><c>     26.98100000</c><c>      3.00000000</c><c>  PAW_PBE Al 04Jan2001                  </c></rc>
   </set>
  </array>
 </atominfo>
 <structure name="initialpos" >
  <crystal>
   <varray name="basis" >
    <v>       4.03892969       0.00000000       0.00000000 </v>
    <v>      -0.00000000       4.03892969       0.00000000 </v>
    <v>       0.00000000       0.00000000       4.05907411 </v>
   </varray>
   <i name="volume">     66.21548538 </i>
   <varray name="rec_basis" >
    <v>       0.24759035       0.00000000      -0.00000000 </v>
    <v>       0.00000000       0.24759035      -0.00000000 </v>
    <v>       0.00000000      -0.00000000       0.24636160 </v>
   </varray>
  </crystal>
  <varray name="positions" >
   <v>       0.00000000       0.00000000       0.00000000 </v>
   <v>       0.00000000       0.50000000       0.50000000 </v>
   <v>       0.50000000       0.00000000       0.50000000 </v>
   <v>       0.50000000       0.50000000       0.00000000 </v>
  </varray>
 </structure>
 <calculation>
  <scstep>
   <time name="dav">   26.71   13.39</time>
   <time name="total">   26.76   13.41</time>
   <energy>
    <i name="alphaZ">     -0.81160711 </i>
    <i name="ewald">   -293.74343254 </i>
    <i name="hartreedc">     -0.41049596 </i>
    <i name="XCdc">   -104.98243983 </i>
    <i name="pawpsdc">    264.80062850 </i>
    <i name="pawaedc">   -136.98248303 </i>
    <i name="eentropy">     -0.00026252 </i>
    <i name="bandstr">     55.65994536 </i>
    <i name="atom">    214.15261729 </i>
    <i name="e_fr_energy">     -2.31752983 </i>
    <i name="e_wo_entrp">     -2.31726731 </i>
    <i name="e_0_energy">     -2.31744233 </i>
   </energy>
  </scstep>
  <scstep>
   <time name="dav">   38.57   19.33</time>
   <time name="total">   38.58   19.34</time>
   <energy>
    <i name="e_fr_energy">    -15.00471034 </i>
    <i name="e_wo_entrp">    -15.00657117 </i>
    <i name="e_0_energy">    -15.00533061 </i>
   </energy>
  </scstep>
  <scstep>
   <time name="dav">   34.53   17.29</time>
   <time name="total">   34.56   17.30</time>
   <energy>
    <i name="e_fr_energy">    -15.07624720 </i>
    <i name="e_wo_entrp">    -15.07843648 </i>
    <i name="e_0_energy">    -15.07697696 </i>
   </energy>
  </scstep>
  <scstep>
   <time name="dav">   44.69   22.42</time>
   <time name="total">   44.70   22.42</time>
   <energy>
    <i name="e_fr_energy">    -15.07641739 </i>
    <i name="e_wo_entrp">    -15.07860744 </i>
    <i name="e_0_energy">    -15.07714741 </i>
   </energy>
  </scstep>
  <scstep>
   <time name="dav">   35.70   18.00</time>
   <time name="total">   36.58   18.46</time>
   <energy>
    <i name="e_fr_energy">    -15.07641748 </i>
    <i name="e_wo_entrp">    -15.07860753 </i>
    <i name="e_0_energy">    -15.07714750 </i>
   </energy>
  </scstep>
  <scstep>
   <time name="diag">    4.31    2.15</time>
   <time name="diis">    8.40    4.52</time>
   <time name="orth">    0.30    0.15</time>
   <time name="total">   13.92    7.31</time>
   <energy>
    <i name="e_fr_energy">    -15.02452098 </i>
    <i name="e_wo_entrp">    -15.02673199 </i>
    <i name="e_0_energy">    -15.02525798 </i>
   </energy>
  </scstep>
  <scstep>
   <time name="diag">    4.30    2.15</time>
   <time name="diis">    8.43    4.52</time>
   <time name="orth">    0.30    0.15</time>
   <time name="total">   13.99    7.33</time>
   <energy>
    <i name="e_fr_energy">    -14.98655738 </i>
    <i name="e_wo_entrp">    -14.98878281 </i>
    <i name="e_0_energy">    -14.98729919 </i>
   </energy>
  </scstep>
  <scstep>
   <time name="diag">    4.47    2.24</time>
   <time name="diis">    8.45    4.59</time>
   <time name="orth">    0.30    0.15</time>
   <time name="total">   14.14    7.46</time>
   <energy>
    <i name="e_fr_energy">    -14.98652675 </i>
    <i name="e_wo_entrp">    -14.98875206 </i>
    <i name="e_0_energy">    -14.98726852 </i>
   </energy>
  </scstep>
  <scstep>
   <time name="diag">    4.41    2.21</time>
   <time name="diis">    8.49    4.58</time>
   <time name="orth">    0.30    0.15</time>
   <time name="total">   14.14    7.43</time>
   <energy>
    <i name="e_fr_energy">    -14.98653246 </i>
    <i name="e_wo_entrp">    -14.98875779 </i>
    <i name="e_0_energy">    -14.98727424 </i>
   </energy>
  </scstep>
  <scstep>
   <time name="diag">    4.45    2.23</time>
   <time name="diis">    8.46    4.59</time>
   <time name="orth">    0.29    0.15</time>
   <time name="total">   14.12    7.45</time>
   <energy>
    <i name="e_fr_energy">    -14.98653353 </i>
    <i name="e_wo_entrp">    -14.98875885 </i>
    <i name="e_0_energy">    -14.98727530 </i>
   </energy>
  </scstep>
  <scstep>
   <time name="diag">    4.33    2.17</time>
   <time name="diis">    8.16    4.58</time>
   <time name="orth">    0.30    0.15</time>
   <time name="total">   13.71    7.38</time>
   <energy>
    <i name="e_fr_energy">    -14.98652899 </i>
    <i name="e_wo_entrp">    -14.98875434 </i>
    <i name="e_0_energy">    -14.98727078 </i>
   </energy>
  </scstep>
  <scstep>
   <time name="diag">    4.38    2.19</time>
   <time name="diis">    6.58    4.18</time>
   <time name="orth">    0.30    0.15</time>
   <time name="total">   11.31    6.55</time>
   <energy>
    <i name="alphaZ">     -0.81160711 </i>
    <i name="ewald">   -293.74343254 </i>
    <i name="hartreedc">     -0.41644365 </i>
    <i name="XCdc">   -104.54907282 </i>
    <i name="pawpsdc">    560.01327154 </i>
    <i name="pawaedc">   -432.24277787 </i>
    <i name="eentropy">      0.00222535 </i>
    <i name="bandstr">     42.60869088 </i>
    <i name="atom">    214.15261729 </i>
    <i name="e_fr_energy">    -14.98652892 </i>
    <i name="e_wo_entrp">    -14.98875427 </i>
    <i name="e_0_energy">    -14.98727070 </i>
   </energy>
  </scstep>
  <structure>
   <crystal>
    <varray name="basis" >
     <v>       4.03892969       0.00000000       0.00000000 </v>
     <v>      -0.00000000       4.03892969       0.00000000 </v>
     <v>       0.00000000       0.00000000       4.05907411 </v>
    </varray>
    <i name="volume">     66.21548538 </i>
    <varray name="rec_basis" >
     <v>       0.24759035       0.00000000      -0.00000000 </v>
     <v>       0.00000000       0.24759035      -0.00000000 </v>
     <v>       0.00000000      -0.00000000       0.24636160 </v>
    </varray>
   </crystal>
   <varray name="positions" >
    <v>       0.00000000       0.00000000       0.00000000 </v>
    <v>       0.00000000       0.50000000       0.50000000 </v>
    <v>       0.50000000       0.00000000       0.50000000 </v>
    <v>       0.50000000       0.50000000       0.00000000 </v>
   </varray>
  </structure>
  <varray name="forces" >
   <v>       0.00000000      -0.00000000       0.00000000 </v>
   <v>       0.00000000       0.00000000       0.00000000 </v>
   <v>      -0.00000000       0.00000000      -0.00000000 </v>
   <v>       0.00000000      -0.00000000      -0.00000000 </v>
  </varray>
  <varray name="stress" >
   <v>      -2.30600958      -0.00000000      -0.00000000 </v>
   <v>      -0.00000000      -2.30600958       0.00000000 </v>
   <v>       0.00000000      -0.00000000      -6.78082828 </v>
  </varray>
  <energy>
   <i name="e_fr_energy">    -14.98652892 </i>
   <i name="e_wo_entrp">    -14.98875427 </i>
   <i name="e_0_energy">    -14.98727070 </i>
  </energy>
  <time name="totalsc">  300.45  154.48</time>
  <eigenvalues>
   <array>
    <dimension dim="1">band</dimension>
    <dimension dim="2">kpoint</dimension>
    <dimension dim="3">spin</dimension>
    <field>eigene</field>
    <field>occ</field>
    <set>
     <set comment="spin 1">
      <set comment="kpoint 1">
       <r>   -3.1287    1.0000 </r>
       <r>    4.8895    1.0000 </r>
       <r>    4.9610    1.0000 </r>
       <r>    4.9610    1.0000 </r>
       <r>    6.4429    1.0000 </r>
       <r>    6.5449    1.0000 </r>
       <r>    6.5449    1.0000 </r>
       <r>   12.7338   -0.0000 </r>
       <r>   12.7339   -0.0000 </r>
       <r>   12.8016   -0.0000 </r>
       <r>   13.5294    0.0000 </r>
       <r>   13.5295    0.0000 </r>
       <r>   13.6211    0.0000 </r>
       <r>   13.9191    0.0000 </r>
      </set>
      <set comment="kpoint 2">
       <r>   -3.0834    1.0000 </r>
       <r>    4.3353    1.0000 </r>
       <r>    4.9314    1.0000 </r>
       <r>    5.0028    1.0000 </r>
       <r>    6.4865    1.0000 </r>
       <r>    6.5884    1.0000 </r>
       <r>    7.2491    1.0000 </r>
       <r>   12.0218   -0.0000 </r>
       <r>   12.0882   -0.0000 </r>
       <r>   12.7762   -0.0000 </r>
       <r>   13.2560   -0.0000 </r>
       <r>   13.3609   -0.0000 </r>
       <r>   13.5680    0.0000 </r>
       <r>   13.9603    0.0000 </r>
      </set>
      <set comment="kpoint 3">
       <r>   -2.9927    1.0000 </r>
       <r>    3.6102    1.0000 </r>
       <r>    5.0151    1.0000 </r>
       <r>    5.0864    1.0000 </r>
       <r>    6.5735    1.0000 </r>
       <r>    6.6753    1.0000 </r>
       <r>    8.1313    0.0232 </r>
       <r>   11.2876   -0.0000 </r>
       <r>   11.3542   -0.0000 </r>
       <r>   12.7556   -0.0000 </r>
       <r>   12.8603   -0.0000 </r>
       <r>   12.8608   -0.0000 </r>
       <r>   13.6451    0.0000 </r>
       <r>   14.0428    0.0000 </r>
      </set>
      <set comment="kpoint 4">
       <r>   -2.8568    1.0000 </r>
       <r>    2.8930    1.0000 </r>
       <r>    5.1406    1.0000 </r>
       <r>    5.2118    1.0000 </r>
       <r>    6.7035    1.0000 </r>
       <r>    6.8051    1.0000 </r>
       <r>    9.0839   -0.0000 </r>
       <r>   10.5837   -0.0000 </r>
       <r>   10.6506   -0.0000 </r>
       <r>   12.1808   -0.0000 </r>
       <r>   12.2848   -0.0000 </r>
       <r>   12.9875   -0.0000 </r>
       <r>   13.7608    0.0000 </r>
       <r>   14.1665    0.0000 </r>
      </set>
      <set comment="kpoint 5">
       <r>   -2.6757    1.0000 </r>
       <r>    2.2048    1.0000 </r>
       <r>    5.3079    1.0000 </r>
       <r>    5.3790    1.0000 </r>
       <r>    6.8758    1.0000 </r>
       <r>    6.9768    1.0000 </r>
       <r>    9.9179   -0.0000 </r>
       <r>    9.9852   -0.0000 </r>
       <r>   10.0856   -0.0000 </r>
       <r>   11.5901   -0.0000 </r>
       <r>   11.6932   -0.0000 </r>
       <r>   13.1562   -0.0000 </r>
       <r>   13.9151    0.0000 </r>
       <r>   14.3317    0.0000 </r>
      </set>
      <set comment="kpoint 6">
       <r>   -2.4498    1.0000 </r>
       <r>    1.5524    1.0000 </r>
       <r>    5.5170    1.0000 </r>
       <r>    5.5879    1.0000 </r>
       <r>    7.0886    1.0000 </r>
       <r>    7.1887    1.0000 </r>
       <r>    9.2930   -0.0000 </r>
       <r>    9.3604   -0.0000 </r>
       <r>   11.0106   -0.0000 </r>
       <r>   11.1125   -0.0000 </r>
       <r>   11.1294   -0.0000 </r>
       <r>   13.3668   -0.0000 </r>
       <r>   14.1079    0.0000 </r>
       <r>   14.5383    0.0000 </r>
      </set>
      <set comment="kpoint 7">
       <r>   -2.1791    1.0000 </r>
       <r>    0.9389    1.0000 </r>
       <r>    5.7679    1.0000 </r>
       <r>    5.8385    1.0000 </r>
       <r>    7.3388    1.0000 </r>
       <r>    7.4368    1.0004 </r>
       <r>    8.7111   -0.0000 </r>
       <r>    8.7783   -0.0000 </r>
       <r>   10.4577   -0.0000 </r>
       <r>   10.5579   -0.0000 </r>
       <r>   12.2117   -0.0000 </r>
       <r>   13.6191    0.0000 </r>
       <r>   14.3395    0.0000 </r>
       <r>   14.7866    0.0000 </r>
      </set>
      <set comment="kpoint 8">
       <r>   -1.8639    1.0000 </r>
       <r>    0.3658    1.0000 </r>
       <r>    6.0604    1.0000 </r>
       <r>    6.1307    1.0000 </r>
       <r>    7.6155    1.0134 </r>
       <r>    7.7047    1.0325 </r>
       <r>    8.1831   -0.0263 </r>
       <r>    8.2451   -0.0342 </r>
       <r>    9.9443   -0.0000 </r>
       <r>   10.0408   -0.0000 </r>
       <r>   13.3287   -0.0000 </r>
       <r>   13.9140    0.0000 </r>
       <r>   14.6097    0.0000 </r>
       <r>   15.0769    0.0000 </r>
      </set>
      <set comment="kpoint 9">
       <r>   -1.5046    1.0000 </r>
       <r>   -0.1658    1.0000 </r>
       <r>    6.3943    1.0000 </r>
       <r>    6.4642    1.0000 </r>
       <r>    7.6285    1.0160 </r>
       <r>    7.6830    1.0282 </r>
       <r>    7.9833    0.4894 </r>
       <r>    8.0549    0.2091 </r>
       <r>    9.4925   -0.0000 </r>
       <r>    9.5789   -0.0000 </r>
       <r>   14.2348    0.0000 </r>
       <r>   14.4947    0.0000 </r>
       <r>   14.9186    0.0000 </r>
       <r>   15.4110    0.0000 </r>
      </set>
      <set comment="kpoint 10">
       <r>   -1.1016    1.0000 </r>
       <r>   -0.6551    1.0000 </r>
[...]
       <r>    1.8014    1.0000 </r>
       <r>    2.2343    1.0000 </r>
       <r>    2.2386    1.0000 </r>
       <r>    2.6697    1.0000 </r>
       <r>    4.8501    1.0000 </r>
       <r>    5.2746    1.0000 </r>
       <r>    5.2787    1.0000 </r>
       <r>    5.7029    1.0000 </r>
       <r>   15.8407    0.0000 </r>
       <r>   16.2097    0.0000 </r>
       <r>   16.2158    0.0000 </r>
       <r>   16.5872    0.0000 </r>
       <r>   17.8473    0.0000 </r>
       <r>   17.9389    0.0000 </r>
      </set>
      <set comment="kpoint 545">
       <r>    1.3625    1.0000 </r>
       <r>    1.7970    1.0000 </r>
       <r>    3.5225    1.0000 </r>
       <r>    3.5225    1.0000 </r>
       <r>    4.0045    1.0000 </r>
       <r>    4.0045    1.0000 </r>
       <r>    5.7078    1.0000 </r>
       <r>    6.1314    1.0000 </r>
       <r>   16.1979    0.0000 </r>
       <r>   16.1979    0.0000 </r>
       <r>   16.6026    0.0000 </r>
       <r>   16.6026    0.0000 </r>
       <r>   17.5345    0.0000 </r>
       <r>   17.6420    0.0000 </r>
      </set>
      <set comment="kpoint 546">
       <r>    1.7138    1.0000 </r>
       <r>    2.1471    1.0000 </r>
       <r>    3.0193    1.0000 </r>
       <r>    3.4337    1.0000 </r>
       <r>    3.9210    1.0000 </r>
       <r>    4.3332    1.0000 </r>
       <r>    5.1942    1.0000 </r>
       <r>    5.6187    1.0000 </r>
       <r>   16.5335    0.0000 </r>
       <r>   16.8562    0.0000 </r>
       <r>   17.2954    0.0000 </r>
       <r>   17.5095    0.0000 </r>
       <r>   17.5203    0.0000 </r>
       <r>   17.8905    0.0000 </r>
      </set>
      <set comment="kpoint 547">
       <r>    2.1078    1.0000 </r>
       <r>    2.5393    1.0000 </r>
       <r>    2.5436    1.0000 </r>
       <r>    2.9720    1.0000 </r>
       <r>    4.2942    1.0000 </r>
       <r>    4.7182    1.0000 </r>
       <r>    4.7224    1.0000 </r>
       <r>    5.1474    1.0000 </r>
       <r>   16.8723    0.0000 </r>
       <r>   17.2085    0.0000 </r>
       <r>   17.2183    0.0000 </r>
       <r>   17.5654    0.0000 </r>
       <r>   18.1096    0.0000 </r>
       <r>   18.1730    0.0000 </r>
      </set>
      <set comment="kpoint 548">
       <r>    2.0641    1.0000 </r>
       <r>    2.4958    1.0000 </r>
       <r>    3.3520    1.0000 </r>
       <r>    3.3520    1.0000 </r>
       <r>    3.8303    1.0000 </r>
       <r>    3.8303    1.0000 </r>
       <r>    4.6798    1.0000 </r>
       <r>    5.1049    1.0000 </r>
       <r>   17.5638    0.0000 </r>
       <r>   17.5640    0.0000 </r>
       <r>   17.8191    0.0000 </r>
       <r>   17.8218    0.0000 </r>
       <r>   18.1625    0.0000 </r>
       <r>   18.1895    0.0000 </r>
      </set>
      <set comment="kpoint 549">
       <r>    2.4567    1.0000 </r>
       <r>    2.8855    1.0000 </r>
       <r>    2.8897    1.0000 </r>
       <r>    3.3055    1.0000 </r>
       <r>    3.7905    1.0000 </r>
       <r>    4.2041    1.0000 </r>
       <r>    4.2082    1.0000 </r>
       <r>    4.6327    1.0000 </r>
       <r>   17.8891    0.0000 </r>
       <r>   18.1422    0.0000 </r>
       <r>   18.1687    0.0000 </r>
       <r>   18.4296    0.0000 </r>
       <r>   18.4507    0.0000 </r>
       <r>   18.4790    0.0000 </r>
      </set>
      <set comment="kpoint 550">
       <r>    2.8464    1.0000 </r>
       <r>    3.2627    1.0000 </r>
       <r>    3.2665    1.0000 </r>
       <r>    3.2665    1.0000 </r>
       <r>    3.7431    1.0000 </r>
       <r>    3.7431    1.0000 </r>
       <r>    3.7469    1.0000 </r>
       <r>    4.1609    1.0000 </r>
       <r>   18.7192    0.0000 </r>
       <r>   18.7738    0.0000 </r>
       <r>   18.7786    0.0000 </r>
       <r>   18.8362    0.0000 </r>
       <r>   18.8419    0.0000 </r>
       <r>   18.9066    0.0000 </r>
      </set>
     </set>
    </set>
   </array>
  </eigenvalues>
  <separator name="orbital magnetization" >
   <v name="MAGDIPOLOUT">      0.00000000      0.00000000      0.00000000</v>
  </separator>
  <dos>
   <i name="efermi">      7.98077384 </i>
   <total>
    <array>
     <dimension dim="1">gridpoints</dimension>
     <dimension dim="2">spin</dimension>
     <field>energy</field>
     <field>total</field>
     <field>integrated</field>
     <set>
      <set comment="spin 1">
       <r>    -5.1287     0.0000     0.0000 </r>
       <r>    -5.0420     0.0000     0.0000 </r>
       <r>    -4.9552     0.0000     0.0000 </r>
       <r>    -4.8684     0.0000     0.0000 </r>
       <r>    -4.7816    -0.0000    -0.0000 </r>
       <r>    -4.6948    -0.0000    -0.0000 </r>
       <r>    -4.6080    -0.0000    -0.0000 </r>
       <r>    -4.5213    -0.0000    -0.0000 </r>
       <r>    -4.4345    -0.0000    -0.0000 </r>
       <r>    -4.3477    -0.0000    -0.0000 </r>
       <r>    -4.2609    -0.0000    -0.0000 </r>
       <r>    -4.1741    -0.0000    -0.0000 </r>
       <r>    -4.0873    -0.0000    -0.0000 </r>
       <r>    -4.0005    -0.0000    -0.0000 </r>
       <r>    -3.9138    -0.0000    -0.0000 </r>
       <r>    -3.8270    -0.0000    -0.0000 </r>
       <r>    -3.7402    -0.0000    -0.0000 </r>
       <r>    -3.6534    -0.0000    -0.0000 </r>
       <r>    -3.5666    -0.0002    -0.0000 </r>
       <r>    -3.4798    -0.0012    -0.0001 </r>
       <r>    -3.3931    -0.0036    -0.0004 </r>
       <r>    -3.3063    -0.0054    -0.0009 </r>
       <r>    -3.2195     0.0032    -0.0006 </r>
       <r>    -3.1327     0.0363     0.0025 </r>
       <r>    -3.0459     0.0951     0.0108 </r>
       <r>    -2.9591     0.1621     0.0248 </r>
       <r>    -2.8723     0.2187     0.0438 </r>
       <r>    -2.7856     0.2612     0.0665 </r>
       <r>    -2.6988     0.2955     0.0921 </r>
       <r>    -2.6120     0.3252     0.1204 </r>
       <r>    -2.5252     0.3522     0.1509 </r>
       <r>    -2.4384     0.3794     0.1838 </r>
       <r>    -2.3516     0.4037     0.2189 </r>
       <r>    -2.2649     0.4233     0.2556 </r>
       <r>    -2.1781     0.4477     0.2945 </r>
       <r>    -2.0913     0.4729     0.3355 </r>
       <r>    -2.0045     0.4874     0.3778 </r>
       <r>    -1.9177     0.5013     0.4213 </r>
       <r>    -1.8309     0.5286     0.4672 </r>
       <r>    -1.7442     0.5552     0.5154 </r>
       <r>    -1.6574     0.5601     0.5640 </r>
       <r>    -1.5706     0.5643     0.6130 </r>
       <r>    -1.4838     0.5973     0.6648 </r>
       <r>    -1.3970     0.6303     0.7195 </r>
       <r>    -1.3102     0.6315     0.7743 </r>
       <r>    -1.2234     0.6272     0.8287 </r>
       <r>    -1.1367     0.6476     0.8849 </r>
       <r>    -1.0499     0.6813     0.9441 </r>
       <r>    -0.9631     0.7064     1.0054 </r>
       <r>    -0.8763     0.7128     1.0672 </r>
       <r>    -0.7895     0.7012     1.1281 </r>
       <r>    -0.7027     0.7000     1.1888 </r>
       <r>    -0.6160     0.7442     1.2534 </r>
       <r>    -0.5292     0.7990     1.3228 </r>
       <r>    -0.4424     0.7964     1.3919 </r>
       <r>    -0.3556     0.7554     1.4574 </r>
       <r>    -0.2688     0.7565     1.5231 </r>
       <r>    -0.1820     0.8106     1.5934 </r>
       <r>    -0.0952     0.8508     1.6673 </r>
       <r>    -0.0085     0.8544     1.7414 </r>
       <r>     0.0783     0.8535     1.8155 </r>
       <r>     0.1651     0.8526     1.8895 </r>
       <r>     0.2519     0.8471     1.9630 </r>
       <r>     0.3387     0.8552     2.0372 </r>
       <r>     0.4255     0.8931     2.1147 </r>
       <r>     0.5122     0.9464     2.1968 </r>
       <r>     0.5990     0.9679     2.2808 </r>
       <r>     0.6858     0.9350     2.3620 </r>
       <r>     0.7726     0.8867     2.4389 </r>
       <r>     0.8594     0.8868     2.5159 </r>
       <r>     0.9462     0.9618     2.5994 </r>
       <r>     1.0330     1.0448     2.6900 </r>
       <r>     1.1197     1.0442     2.7807 </r>
       <r>     1.2065     0.9831     2.8660 </r>
       <r>     1.2933     0.9606     2.9494 </r>
       <r>     1.3801     0.9979     3.0360 </r>
       <r>     1.4669     1.0303     3.1254 </r>
       <r>     1.5537     1.0337     3.2151 </r>
       <r>     1.6404     1.0455     3.3058 </r>
       <r>     1.7272     1.0815     3.3997 </r>
       <r>     1.8140     1.1177     3.4967 </r>
       <r>     1.9008     1.1191     3.5938 </r>
       <r>     1.9876     1.0717     3.6868 </r>
       <r>     2.0744     1.0205     3.7754 </r>
       <r>     2.1612     1.0465     3.8662 </r>
       <r>     2.2479     1.1440     3.9655 </r>
       <r>     2.3347     1.2090     4.0704 </r>
       <r>     2.4215     1.2095     4.1753 </r>
       <r>     2.5083     1.1849     4.2782 </r>
       <r>     2.5951     1.1324     4.3764 </r>
       <r>     2.6819     1.0836     4.4705 </r>
       <r>     2.7686     1.1201     4.5677 </r>
       <r>     2.8554     1.2215     4.6737 </r>
       <r>     2.9422     1.2746     4.7843 </r>
       <r>     3.0290     1.2523     4.8930 </r>
       <r>     3.1158     1.2260     4.9994 </r>
       <r>     3.2026     1.2277     5.1059 </r>
       <r>     3.2894     1.2488     5.2143 </r>
       <r>     3.3761     1.2813     5.3255 </r>
       <r>     3.4629     1.2800     5.4366 </r>
       <r>     3.5497     1.2248     5.5429 </r>
       <r>     3.6365     1.1969     5.6468 </r>
       <r>     3.7233     1.2721     5.7572 </r>
       <r>     3.8101     1.3855     5.8774 </r>
       <r>     3.8968     1.4153     6.0002 </r>
       <r>     3.9836     1.3500     6.1174 </r>
       <r>     4.0704     1.2695     6.2276 </r>
       <r>     4.1572     1.2378     6.3350 </r>
       <r>     4.2440     1.2700     6.4452 </r>
       <r>     4.3308     1.3575     6.5630 </r>
       <r>     4.4176     1.4601     6.6897 </r>
       <r>     4.5043     1.4972     6.8197 </r>
       <r>     4.5911     1.4418     6.9448 </r>
       <r>     4.6779     1.3703     7.0637 </r>
       <r>     4.7647     1.3547     7.1813 </r>
       <r>     4.8515     1.3983     7.3026 </r>
       <r>     4.9383     1.4801     7.4311 </r>
       <r>     5.0250     1.5612     7.5666 </r>
       <r>     5.1118     1.5892     7.7045 </r>
       <r>     5.1986     1.5629     7.8401 </r>
       <r>     5.2854     1.5162     7.9717 </r>
       <r>     5.3722     1.4702     8.0993 </r>
       <r>     5.4590     1.4692     8.2268 </r>
       <r>     5.5458     1.5272     8.3593 </r>
       <r>     5.6325     1.5604     8.4948 </r>
       <r>     5.7193     1.5112     8.6259 </r>
       <r>     5.8061     1.4308     8.7501 </r>
       <r>     5.8929     1.3780     8.8697 </r>
       <r>     5.9797     1.3593     8.9876 </r>
       <r>     6.0665     1.3858     9.1079 </r>
       <r>     6.1532     1.4427     9.2331 </r>
       <r>     6.2400     1.4524     9.3591 </r>
       <r>     6.3268     1.4101     9.4815 </r>
       <r>     6.4136     1.3808     9.6014 </r>
       <r>     6.5004     1.3691     9.7202 </r>
       <r>     6.5872     1.3966     9.8414 </r>
       <r>     6.6740     1.5097     9.9724 </r>
       <r>     6.7607     1.6233    10.1133 </r>
       <r>     6.8475     1.6112    10.2531 </r>
       <r>     6.9343     1.5146    10.3845 </r>
       <r>     7.0211     1.4698    10.5121 </r>
       <r>     7.1079     1.5130    10.6434 </r>
       <r>     7.1947     1.5784    10.7804 </r>
       <r>     7.2814     1.6136    10.9204 </r>
       <r>     7.3682     1.5940    11.0587 </r>
       <r>     7.4550     1.5213    11.1908 </r>
       <r>     7.5418     1.4807    11.3193 </r>
       <r>     7.6286     1.5532    11.4541 </r>
       <r>     7.7154     1.6547    11.5977 </r>
       <r>     7.8021     1.6380    11.7398 </r>
       <r>     7.8889     1.5100    11.8709 </r>
       <r>     7.9757     1.4066    11.9929 </r>
       <r>     8.0625     1.4414    12.1180 </r>
       <r>     8.1493     1.6272    12.2592 </r>
       <r>     8.2361     1.8485    12.4197 </r>
       <r>     8.3229     1.9331    12.5874 </r>
       <r>     8.4096     1.8309    12.7463 </r>
       <r>     8.4964     1.6597    12.8904 </r>
       <r>     8.5832     1.5537    13.0252 </r>
       <r>     8.6700     1.5578    13.1604 </r>
       <r>     8.7568     1.6293    13.3018 </r>
       <r>     8.8436     1.6848    13.4480 </r>
       <r>     8.9303     1.6929    13.5949 </r>
       <r>     9.0171     1.6865    13.7413 </r>
       <r>     9.1039     1.6790    13.8870 </r>
       <r>     9.1907     1.6851    14.0332 </r>
       <r>     9.2775     1.7467    14.1848 </r>
       <r>     9.3643     1.8370    14.3442 </r>
       <r>     9.4511     1.8629    14.5059 </r>
       <r>     9.5378     1.7966    14.6618 </r>
       <r>     9.6246     1.6976    14.8092 </r>
       <r>     9.7114     1.6152    14.9493 </r>
       <r>     9.7982     1.5731    15.0859 </r>
       <r>     9.8850     1.6286    15.2272 </r>
       <r>     9.9718     1.7985    15.3833 </r>
       <r>    10.0585     1.9820    15.5553 </r>
       <r>    10.1453     2.0657    15.7346 </r>
       <r>    10.2321     1.9712    15.9056 </r>
       <r>    10.3189     1.7052    16.0536 </r>
       <r>    10.4057     1.5168    16.1852 </r>
       <r>    10.4925     1.6621    16.3295 </r>
       <r>    10.5793     1.9675    16.5002 </r>
       <r>    10.6660     2.0687    16.6798 </r>
       <r>    10.7528     1.9551    16.8494 </r>
       <r>    10.8396     1.8326    17.0085 </r>
       <r>    10.9264     1.7517    17.1605 </r>
       <r>    11.0132     1.7221    17.3099 </r>
       <r>    11.1000     1.8055    17.4666 </r>
       <r>    11.1867     1.9305    17.6342 </r>
       <r>    11.2735     1.9649    17.8047 </r>
       <r>    11.3603     1.9619    17.9750 </r>
       <r>    11.4471     2.0269    18.1509 </r>
       <r>    11.5339     2.0720    18.3307 </r>
       <r>    11.6207     1.9914    18.5035 </r>
       <r>    11.7075     1.8648    18.6653 </r>
       <r>    11.7942     1.8185    18.8232 </r>
       <r>    11.8810     1.8706    18.9855 </r>
       <r>    11.9678     1.9425    19.1541 </r>
       <r>    12.0546     1.9576    19.3240 </r>
       <r>    12.1414     1.9367    19.4920 </r>
       <r>    12.2282     1.9717    19.6631 </r>
       <r>    12.3149     2.1028    19.8456 </r>
       <r>    12.4017     2.2364    20.0397 </r>
       <r>    12.4885     2.2249    20.2328 </r>
       <r>    12.5753     2.0563    20.4113 </r>
       <r>    12.6621     1.8973    20.5759 </r>
       <r>    12.7489     1.9005    20.7409 </r>
       <r>    12.8357     2.0280    20.9169 </r>
       <r>    12.9224     2.1181    21.1007 </r>
       <r>    13.0092     2.1222    21.2848 </r>
       <r>    13.0960     2.1413    21.4707 </r>
       <r>    13.1828     2.1989    21.6615 </r>
       <r>    13.2696     2.2177    21.8540 </r>
       <r>    13.3564     2.2045    22.0453 </r>
       <r>    13.4431     2.2142    22.2374 </r>
       <r>    13.5299     2.2467    22.4324 </r>
       <r>    13.6167     2.3193    22.6337 </r>
       <r>    13.7035     2.4425    22.8457 </r>
       <r>    13.7903     2.5086    23.0634 </r>
       <r>    13.8771     2.4159    23.2730 </r>
       <r>    13.9639     2.2327    23.4668 </r>
       <r>    14.0506     2.1214    23.6509 </r>
       <r>    14.1374     2.1594    23.8383 </r>
       <r>    14.2242     2.2608    24.0345 </r>
       <r>    14.3110     2.2885    24.2331 </r>
       <r>    14.3978     2.2110    24.4250 </r>
       <r>    14.4846     2.1038    24.6076 </r>
       <r>    14.5713     2.0345    24.7841 </r>
       <r>    14.6581     2.0043    24.9581 </r>
       <r>    14.7449     1.9931    25.1311 </r>
       <r>    14.8317     1.9938    25.3041 </r>
       <r>    14.9185     2.0113    25.4786 </r>
       <r>    15.0053     2.0230    25.6542 </r>
       <r>    15.0921     1.9305    25.8217 </r>
       <r>    15.1788     1.6821    25.9677 </r>
       <r>    15.2656     1.4228    26.0912 </r>
       <r>    15.3524     1.3434    26.2078 </r>
       <r>    15.4392     1.4485    26.3335 </r>
       <r>    15.5260     1.5696    26.4697 </r>
       <r>    15.6128     1.5400    26.6034 </r>
       <r>    15.6995     1.3408    26.7197 </r>
       <r>    15.7863     1.1024    26.8154 </r>
       <r>    15.8731     0.9677    26.8994 </r>
       <r>    15.9599     0.9435    26.9813 </r>
       <r>    16.0467     0.9191    27.0610 </r>
       <r>    16.1335     0.8435    27.1342 </r>
       <r>    16.2203     0.7768    27.2016 </r>
       <r>    16.3070     0.7574    27.2674 </r>
       <r>    16.3938     0.7507    27.3325 </r>
       <r>    16.4806     0.7217    27.3951 </r>
       <r>    16.5674     0.6574    27.4522 </r>
       <r>    16.6542     0.5625    27.5010 </r>
       <r>    16.7410     0.4836    27.5430 </r>
       <r>    16.8277     0.4561    27.5826 </r>
       <r>    16.9145     0.4377    27.6206 </r>
       <r>    17.0013     0.3974    27.6550 </r>
       <r>    17.0881     0.3832    27.6883 </r>
       <r>    17.1749     0.4132    27.7242 </r>
       <r>    17.2617     0.4231    27.7609 </r>
       <r>    17.3484     0.3778    27.7937 </r>
       <r>    17.4352     0.3192    27.8214 </r>
       <r>    17.5220     0.2763    27.8453 </r>
       <r>    17.6088     0.2325    27.8655 </r>
       <r>    17.6956     0.1921    27.8822 </r>
       <r>    17.7824     0.1805    27.8979 </r>
       <r>    17.8692     0.1804    27.9135 </r>
       <r>    17.9559     0.1591    27.9273 </r>
       <r>    18.0427     0.1304    27.9386 </r>
       <r>    18.1295     0.1185    27.9489 </r>
       <r>    18.2163     0.1103    27.9585 </r>
       <r>    18.3031     0.0936    27.9666 </r>
       <r>    18.3899     0.0814    27.9737 </r>
       <r>    18.4766     0.0744    27.9801 </r>
       <r>    18.5634     0.0584    27.9852 </r>
       <r>    18.6502     0.0387    27.9886 </r>
       <r>    18.7370     0.0339    27.9915 </r>
       <r>    18.8238     0.0398    27.9949 </r>
       <r>    18.9106     0.0363    27.9981 </r>
       <r>    18.9974     0.0203    27.9999 </r>
       <r>    19.0841     0.0051    28.0003 </r>
       <r>    19.1709    -0.0012    28.0002 </r>
       <r>    19.2577    -0.0015    28.0001 </r>
       <r>    19.3445    -0.0006    28.0000 </r>
       <r>    19.4313    -0.0001    28.0000 </r>
       <r>    19.5181    -0.0000    28.0000 </r>
       <r>    19.6048    -0.0000    28.0000 </r>
       <r>    19.6916    -0.0000    28.0000 </r>
       <r>    19.7784    -0.0000    28.0000 </r>
       <r>    19.8652    -0.0000    28.0000 </r>
       <r>    19.9520    -0.0000    28.0000 </r>
       <r>    20.0388    -0.0000    28.0000 </r>
       <r>    20.1256    -0.0000    28.0000 </r>
       <r>    20.2123    -0.0000    28.0000 </r>
       <r>    20.2991     0.0000    28.0000 </r>
       <r>    20.3859     0.0000    28.0000 </r>
       <r>    20.4727     0.0000    28.0000 </r>
       <r>    20.5595     0.0000    28.0000 </r>
       <r>    20.6463     0.0000    28.0000 </r>
       <r>    20.7330     0.0000    28.0000 </r>
       <r>    20.8198     0.0000    28.0000 </r>
       <r>    20.9066     0.0000    28.0000 </r>
      </set>
     </set>
    </array>
   </total>
  </dos>
 </calculation>
 <structure name="finalpos" >
  <crystal>
   <varray name="basis" >
    <v>       4.03892969       0.00000000       0.00000000 </v>
    <v>      -0.00000000       4.03892969       0.00000000 </v>
    <v>       0.00000000       0.00000000       4.05907411 </v>
   </varray>
   <i name="volume">     66.21548538 </i>
   <varray name="rec_basis" >
    <v>       0.24759035       0.00000000      -0.00000000 </v>
    <v>       0.00000000       0.24759035      -0.00000000 </v>
    <v>       0.00000000      -0.00000000       0.24636160 </v>
   </varray>
  </crystal>
  <varray name="positions" >
   <v>       0.00000000       0.00000000       0.00000000 </v>
   <v>       0.00000000       0.50000000       0.50000000 </v>
   <v>       0.50000000       0.00000000       0.50000000 </v>
   <v>       0.50000000       0.50000000       0.00000000 </v>
  </varray>
 </structure>
</modeling>
