
5 atoms
1 atom types
   0.0000000000    2.8545447841 xlo xhi
   0.0000000000    2.4721082993 ylo yhi
   0.0000000000   23.3066500976 zlo zhi
   1.4272723921    1.4372537179    0.8240145165 xy xz yz

Atoms # atomic

     1      1    2.8550438505    1.6480711204    1.1653325049
     2      1    4.2833143751    2.4721050618    3.4959975146
     3      1    1.4297677236    0.8240307040    5.8266625244
     4      1    2.8580382482    1.6480646454    8.1573275341
     5      1    4.2863087729    2.4720985869   10.4879925439
