ITEM: TIMESTEP
0
ITEM: NUMBER OF ATOMS
5
ITEM: BOX BOUNDS xy xz yz pp pp pp
0.0000000000000000e+00 5.7190708940999997e+00 1.4272723920999999e+00
0.0000000000000000e+00 3.2961228158000000e+00 1.4372537179000000e+00
0.0000000000000000e+00 2.3306650097599999e+01 8.2401451650000002e-01
ITEM: ATOMS id type xs ys zs fx fy fz
1 1 0.65 0.65 0.05 0.00058193 -1.7226e-06 -0.0714358
2 1 0.95 0.95 0.15 2.54776e-05 1.70684e-07 0.0512332
3 1 0.25 0.25 0.25 -4.74479e-11 -4.76207e-11 -2.60007e-10
4 1 0.55 0.55 0.35 -2.54775e-05 -1.70585e-07 -0.0512332
5 1 0.85 0.85 0.45 -0.000581931 1.72254e-06 0.0714358
