ITEM: TIMESTEP
0
ITEM: NUMBER OF ATOMS
4
ITEM: BOX BOUNDS xy xz yz pp pp pp
0.0000000000000000e+00 4.0319999997000000e+00 0.0000000000000000e+00
-8.0640000000000003e-02 4.0319999997000000e+00 0.0000000000000000e+00
0.0000000000000000e+00 4.0311935190000003e+00 -8.0640000000000003e-02
ITEM: ATOMS id type xs ys zs fx fy fz
1 1 0 0 0 -2.31336e-10 -2.31657e-10 -1.72258e-11
2 1 0 0.5 0.5 -2.31336e-10 2.31657e-10 1.72258e-11
3 1 0.5 0.5 0 2.31336e-10 2.31658e-10 1.72263e-11
4 1 0.5 5.20417e-18 0.5 2.31336e-10 -2.31658e-10 -1.72262e-11
ITEM: TIMESTEP
1
ITEM: NUMBER OF ATOMS
4
ITEM: BOX BOUNDS xy xz yz pp pp pp
0.0000000000000000e+00 4.0319999997000000e+00 0.0000000000000000e+00
-8.0640000000000003e-02 4.0319999997000000e+00 0.0000000000000000e+00
0.0000000000000000e+00 4.0311935190000003e+00 -8.0640000000000003e-02
ITEM: ATOMS id type xs ys zs fx fy fz
3 1 0.5 0.5 4.59596e-13 1.10564e-12 -4.88414e-13 -8.21774e-12
4 1 0.5 1 0.5 1.1047e-12 4.90447e-13 8.21779e-12
2 1 1 0.5 0.5 -1.1047e-12 -4.87758e-13 -8.21696e-12
1 1 1 1 1 -1.10566e-12 4.85637e-13 8.21695e-12
