 running   14 mpi-ranks, with    2 threads/rank, on    1 nodes
 distrk:  each k-point on   14 cores,    1 groups
 distr:  one band on    1 cores,   14 groups
 vasp.6.4.2 20Jul23 (build Apr 22 2024 22:35:45) complex                         
 POSCAR found type information on POSCAR Al
 POSCAR found :  1 types and       4 ions
 scaLAPACK will be used
 -----------------------------------------------------------------------------
|                                                                             |
|               ----> ADVICE to this user running VASP <----                  |
|                                                                             |
|     You have a (more or less) 'small supercell' and for smaller cells       |
|     it is recommended to use the reciprocal-space projection scheme!        |
|     The real-space optimization is not efficient for small cells and it     |
|     is also less accurate ...                                               |
|     Therefore, set LREAL=.FALSE. in the INCAR file.                         |
|                                                                             |
 -----------------------------------------------------------------------------

 LDA part: xc-table for Pade appr. of Perdew
 POSCAR, INCAR and KPOINTS ok, starting setup
 FFT: planning ... GRIDC
 FFT: planning ... GRID_SOFT
 FFT: planning ... GRID
 WAVECAR not read
 entering main loop
       N       E                     dE             d eps       ncg     rms          rms(c)
DAV:   1    -0.228976883377E+01   -0.22898E+01   -0.38563E+03 30982   0.523E+02
DAV:   2    -0.150042947241E+02   -0.12715E+02   -0.12343E+02 44968   0.480E+01
DAV:   3    -0.150763100440E+02   -0.72015E-01   -0.71836E-01 40558   0.491E+00
DAV:   4    -0.150764752737E+02   -0.16523E-03   -0.16521E-03 51128   0.230E-01
DAV:   5    -0.150764753446E+02   -0.70964E-07   -0.70447E-07 40922   0.383E-03    0.261E+00
RMM:   6    -0.150244017199E+02    0.52074E-01   -0.53904E-03 30800   0.427E-01    0.153E+00
RMM:   7    -0.149863046166E+02    0.38097E-01   -0.16471E-02 30800   0.714E-01    0.225E-01
RMM:   8    -0.149862746689E+02    0.29948E-04   -0.57866E-04 30800   0.160E-01    0.279E-02
RMM:   9    -0.149862803978E+02   -0.57289E-05   -0.99034E-05 30800   0.690E-02    0.233E-02
RMM:  10    -0.149862813967E+02   -0.99889E-06   -0.22195E-05 30800   0.332E-02    0.225E-02
RMM:  11    -0.149862769434E+02    0.44533E-05   -0.43797E-06 30326   0.128E-02    0.524E-03
RMM:  12    -0.149862768440E+02    0.99431E-07   -0.11723E-06 22895   0.812E-03
   1 F= -.14986277E+02 E0= -.14986999E+02  d E =-.149863E+02
 curvature:   0.00 expect dE= 0.000E+00 dE for cont linesearch  0.000E+00
 trial: gam= 0.00000 g(F)=  0.249E-61 g(S)=  0.000E+00 ort = 0.000E+00 (trialstep = 0.100E+01)
 search vector abs. value=  0.100E-09
 reached required accuracy - stopping structural energy minimisation
