 vasp.6.4.2 20Jul23 (build Apr 22 2024 22:35:45) complex                         
 executed on             LinuxGNU date 2024.05.26  16:49:39
 running   14 mpi-ranks, with    2 threads/rank, on    1 nodes
 distrk:  each k-point on   14 cores,    1 groups
 distr:  one band on NCORE=   1 cores,   14 groups


--------------------------------------------------------------------------------------------------------


 INCAR:
   ALGO = Fast
   EDIFF = 1e-06
   ENCUT = 400
   IBRION = 2
   ISIF = 2
   ISMEAR = 1
   KSPACING = 0.08
   LCHARG = False
   LREAL = Auto
   LWAVE = False
   NELM = 60
   NELMIN = 4
   NSW = 100
   PREC = Accurate
   SIGMA = 0.2
   SYSTEM = Al fcc relaxation

 POTCAR:    PAW_PBE Al 04Jan2001                  
 POTCAR:    PAW_PBE Al 04Jan2001                  
   SHA256 =  17880443556af62b473fe41b62a467bd001ad55d2cabe504a3f22e34d4e9db96 Al/POTCAR             
   COPYR  = (c) Copyright 04Jan2001 Georg Kresse                                                    
   COPYR  = This file is part of the software VASP. Any use, copying, and all other rights are regul
   COPYR  = If you do not have a valid VASP license, you may not use, copy or distribute this file. 
   VRHFIN =Al: s2p1                                                                                 
   LEXCH  = PE                                                                                      
   EATOM  =    53.5387 eV,    3.9350 Ry                                                             
                                                                                                    
   TITEL  = PAW_PBE Al 04Jan2001                                                                    
   LULTRA =        F    use ultrasoft PP ?                                                          
   IUNSCR =        1    unscreen: 0-lin 1-nonlin 2-no                                               
   RPACOR =    1.500    partial core radius                                                         
   POMASS =   26.981; ZVAL   =    3.000    mass and valenz                                          
   RCORE  =    1.900    outmost cutoff radius                                                       
   RWIGS  =    2.650; RWIGS  =    1.402    wigner-seitz radius (au A)                               
   ENMAX  =  240.300; ENMIN  =  180.225 eV                                                          
   ICORE  =        2    local potential                                                             
   LCOR   =        T    correct aug charges                                                         
   LPAW   =        T    paw PP                                                                      
   EAUG   =  291.052                                                                                
   DEXC   =    0.000                                                                                
   RMAX   =    1.939    core radius for proj-oper                                                   
   RAUG   =    1.300    factor for augmentation sphere                                              
   RDEP   =    1.966    radius for radial grids                                                     
   RDEPT  =    1.856    core radius for aug-charge                                                  
                                                                                                    
   Atomic configuration                                                                             
    6 entries                                                                                       
     n  l   j            E        occ.                                                              
     1  0  0.50     -1511.1048   2.0000                                                             
     2  0  0.50      -108.1629   2.0000                                                             
     2  1  1.50       -69.6402   6.0000                                                             
     3  0  0.50        -7.7528   2.0000                                                             
     3  1  1.50        -2.7121   1.0000                                                             
     3  2  2.50        -2.7212   0.0000                                                             
   Description                                                                                      
     l       E           TYP  RCUT    TYP  RCUT                                                     
     0     -7.7528455     23  1.900                                                                 
     0     -3.3096929     23  1.900                                                                 
     1     -2.7120682     23  1.900                                                                 
     1     13.6058260     23  1.900                                                                 
     2     -2.7211652      7  1.900                                                                 
  local pseudopotential read in
  partial core-charges read in
  partial kinetic energy density read in
  atomic valenz-charges read in
  non local Contribution for L=           0  read in
    real space projection operators read in
  non local Contribution for L=           0  read in
    real space projection operators read in
  non local Contribution for L=           1  read in
    real space projection operators read in
  non local Contribution for L=           1  read in
    real space projection operators read in
    PAW grid and wavefunctions read in

   number of l-projection  operators is LMAX  =           4
   number of lm-projection operators is LMMAX =           8

 -----------------------------------------------------------------------------
|                                                                             |
|               ----> ADVICE to this user running VASP <----                  |
|                                                                             |
|     You have a (more or less) 'small supercell' and for smaller cells       |
|     it is recommended to use the reciprocal-space projection scheme!        |
|     The real-space optimization is not efficient for small cells and it     |
|     is also less accurate ...                                               |
|     Therefore, set LREAL=.FALSE. in the INCAR file.                         |
|                                                                             |
 -----------------------------------------------------------------------------

 Optimization of the real space projectors (new method)

 maximal supplied QI-value         = 19.84
 optimisation between [QCUT,QGAM] = [ 10.12, 20.44] = [ 28.68,116.96] Ry 
 Optimized for a Real-space Cutoff    1.38 Angstroem

   l    n(q)    QCUT    max X(q) W(low)/X(q) W(high)/X(q)  e(spline) 
   0      8    10.119   176.870    0.39E-04    0.93E-04    0.54E-07
   0      8    10.119   105.762    0.37E-04    0.91E-04    0.53E-07
   1      8    10.119    55.370    0.18E-03    0.13E-03    0.19E-06
   1      8    10.119    20.208    0.17E-03    0.12E-03    0.18E-06
  PAW_PBE Al 04Jan2001                  :
 energy of atom  1       EATOM=  -53.5387
 kinetic energy error for atom=    0.0005 (will be added to EATOM!!)


 POSCAR: Al4
  positions in direct lattice
  No initial velocities read in
 exchange correlation table for  LEXCH =        8
   RHO(1)=    0.500       N(1)  =     2000
   RHO(2)=  100.500       N(2)  =     4000



--------------------------------------------------------------------------------------------------------


 ion  position               nearest neighbor table
   1  0.000  0.000  0.000-   4 2.84   4 2.84   2 2.86   3 2.86   2 2.86   2 2.86   2 2.86   3 2.86
                             3 2.86   3 2.86   4 2.87   4 2.87
   2  0.000  0.500  0.500-   3 2.84   3 2.84   1 2.86   4 2.86   1 2.86   1 2.86   1 2.86   4 2.86
                             4 2.86   4 2.86   3 2.87   3 2.87
   3  0.500  0.000  0.500-   2 2.84   2 2.84   1 2.86   4 2.86   1 2.86   4 2.86   4 2.86   1 2.86
                             4 2.86   1 2.86   2 2.87   2 2.87
   4  0.500  0.500  0.000-   1 2.84   1 2.84   2 2.86   3 2.86   2 2.86   3 2.86   3 2.86   3 2.86
                             2 2.86   2 2.86   1 2.87   1 2.87

  LATTYP: Found a base centered orthorhombic cell.
 ALAT       =     5.6832778457
 B/A-ratio  =     1.0100505038
 C/A-ratio  =     0.7106690545
  
  Lattice vectors:
  
 A1 = (  -0.0403892969,  -4.0387277416,   0.0000000000)
 A2 = (   4.0389296932,   0.0000000000,   0.0000000000)
 A3 = (   0.0000000000,   0.0000000000,   4.0389296932)


Analysis of symmetry for initial positions (statically):
=====================================================================
 Subroutine PRICEL returns following result:
 
  LATTYP: Found a body centered orthorhombic cell.
 ALAT       =     2.8416389229
 B/A-ratio  =     1.0100505038
 C/A-ratio  =     1.4213381090
  
  Lattice vectors:
  
 A1 = (   2.0194648466,   0.0000000000,  -2.0194648466)
 A2 = (  -2.0194648466,   0.0000000000,  -2.0194648466)
 A3 = (   0.0201946485,   2.0193638708,   2.0194648466)
 
   4 primitive cells build up your supercell.
 

 Routine SETGRP: Setting up the symmetry group for a 
 base centered orthorhombic supercell.


 Subroutine GETGRP returns: Found  8 space group operations
 (whereof  8 operations were pure point group operations)
 out of a pool of  8 trial point group operations.


The static configuration has the point symmetry D_2h.


Analysis of symmetry for dynamics (positions and initial velocities):
=====================================================================
 Subroutine PRICEL returns following result:
 
  LATTYP: Found a body centered orthorhombic cell.
 ALAT       =     2.8416389229
 B/A-ratio  =     1.0100505038
 C/A-ratio  =     1.4213381090
  
  Lattice vectors:
  
 A1 = (   2.0194648466,   0.0000000000,  -2.0194648466)
 A2 = (  -2.0194648466,   0.0000000000,  -2.0194648466)
 A3 = (   0.0201946485,   2.0193638708,   2.0194648466)
 
   4 primitive cells build up your supercell.
 

 Routine SETGRP: Setting up the symmetry group for a 
 base centered orthorhombic supercell.


 Subroutine GETGRP returns: Found  8 space group operations
 (whereof  8 operations were pure point group operations)
 out of a pool of  8 trial point group operations.


The dynamic configuration has the point symmetry D_2h.


 Subroutine INISYM returns: Found  8 space group operations
 (whereof  8 operations are pure point group operations),
 and found     4 'primitive' translations


----------------------------------------------------------------------------------------

                                     Primitive cell                                     

  volume of cell :      16.4709

  direct lattice vectors                    reciprocal lattice vectors
     2.019464847  0.000000000 -2.019464847     0.247590346  0.245126699 -0.247590346
    -2.019464847  0.000000000 -2.019464847    -0.247590346  0.250078754 -0.247590346
     0.020194648  2.019363871  2.019464847     0.000000000  0.495205453  0.000000000

  length of vectors
     2.855954575  2.855954575  2.855954575     0.427421405  0.430280539  0.495205453

  position of ions in fractional coordinates (direct lattice)
     0.000000000  0.000000000  0.000000000

  ion indices of the primitive-cell ions
   primitive index   ion index
                 1           1

----------------------------------------------------------------------------------------



 KPOINTS: Automatic kpoint scheme                 

Automatic generation of k-mesh.
 Grid dimensions read from file:
 generate k-points for:   20   20   20

 Generating k-lattice:

  Cartesian coordinates                     Fractional coordinates (reciprocal lattice)
     0.012379517 -0.000123801 -0.000000000     0.050000000 -0.000000000 -0.000000000
     0.000000000  0.012380136 -0.000000000     0.000000000  0.050000000  0.000000000
     0.000000000  0.000000000  0.012379517     0.000000000  0.000000000  0.050000000

  Length of vectors
     0.012380136  0.012380136  0.012379517

  Shift w.r.t. Gamma in fractional coordinates (k-lattice)
     0.500000000  0.500000000  0.500000000

 
 Subroutine IBZKPT returns following result:
 ===========================================
 
 Found   1100 irreducible k-points:
 
 Following reciprocal coordinates:
            Coordinates               Weight
  0.025000  0.025000  0.025000      4.000000
  0.075000  0.025000  0.025000      8.000000
  0.125000  0.025000  0.025000      8.000000
  0.175000  0.025000  0.025000      8.000000
  0.225000  0.025000  0.025000      8.000000
  0.275000  0.025000  0.025000      8.000000
  0.325000  0.025000  0.025000      8.000000
  0.375000  0.025000  0.025000      8.000000
  0.425000  0.025000  0.025000      8.000000
  0.475000  0.025000  0.025000      8.000000
 -0.475000  0.025000  0.025000      8.000000
 -0.425000  0.025000  0.025000      8.000000
 -0.375000  0.025000  0.025000      8.000000
 -0.325000  0.025000  0.025000      8.000000
 -0.275000  0.025000  0.025000      8.000000
 -0.225000  0.025000  0.025000      8.000000
 -0.175000  0.025000  0.025000      8.000000
 -0.125000  0.025000  0.025000      8.000000
 -0.075000  0.025000  0.025000      8.000000
 -0.025000  0.025000  0.025000      4.000000
  0.075000  0.075000  0.025000      4.000000
  0.125000  0.075000  0.025000      8.000000
  0.175000  0.075000  0.025000      8.000000
  0.225000  0.075000  0.025000      8.000000
  0.275000  0.075000  0.025000      8.000000
  0.325000  0.075000  0.025000      8.000000
  0.375000  0.075000  0.025000      8.000000
  0.425000  0.075000  0.025000      8.000000
  0.475000  0.075000  0.025000      8.000000
 -0.475000  0.075000  0.025000      8.000000
 -0.425000  0.075000  0.025000      8.000000
 -0.375000  0.075000  0.025000      8.000000
 -0.325000  0.075000  0.025000      8.000000
 -0.275000  0.075000  0.025000      8.000000
 -0.225000  0.075000  0.025000      8.000000
 -0.175000  0.075000  0.025000      8.000000
 -0.125000  0.075000  0.025000      8.000000
 -0.075000  0.075000  0.025000      4.000000
  0.125000  0.125000  0.025000      4.000000
  0.175000  0.125000  0.025000      8.000000
  0.225000  0.125000  0.025000      8.000000
  0.275000  0.125000  0.025000      8.000000
  0.325000  0.125000  0.025000      8.000000
  0.375000  0.125000  0.025000      8.000000
  0.425000  0.125000  0.025000      8.000000
  0.475000  0.125000  0.025000      8.000000
 -0.475000  0.125000  0.025000      8.000000
 -0.425000  0.125000  0.025000      8.000000
 -0.375000  0.125000  0.025000      8.000000
 -0.325000  0.125000  0.025000      8.000000
 -0.275000  0.125000  0.025000      8.000000
 -0.225000  0.125000  0.025000      8.000000
 -0.175000  0.125000  0.025000      8.000000
 -0.125000  0.125000  0.025000      4.000000
  0.175000  0.175000  0.025000      4.000000
  0.225000  0.175000  0.025000      8.000000
  0.275000  0.175000  0.025000      8.000000
  0.325000  0.175000  0.025000      8.000000
  0.375000  0.175000  0.025000      8.000000
  0.425000  0.175000  0.025000      8.000000
  0.475000  0.175000  0.025000      8.000000
 -0.475000  0.175000  0.025000      8.000000
 -0.425000  0.175000  0.025000      8.000000
 -0.375000  0.175000  0.025000      8.000000
 -0.325000  0.175000  0.025000      8.000000
 -0.275000  0.175000  0.025000      8.000000
 -0.225000  0.175000  0.025000      8.000000
 -0.175000  0.175000  0.025000      4.000000
  0.225000  0.225000  0.025000      4.000000
  0.275000  0.225000  0.025000      8.000000
  0.325000  0.225000  0.025000      8.000000
  0.375000  0.225000  0.025000      8.000000
  0.425000  0.225000  0.025000      8.000000
  0.475000  0.225000  0.025000      8.000000
 -0.475000  0.225000  0.025000      8.000000
 -0.425000  0.225000  0.025000      8.000000
 -0.375000  0.225000  0.025000      8.000000
 -0.325000  0.225000  0.025000      8.000000
 -0.275000  0.225000  0.025000      8.000000
 -0.225000  0.225000  0.025000      4.000000
  0.275000  0.275000  0.025000      4.000000
  0.325000  0.275000  0.025000      8.000000
  0.375000  0.275000  0.025000      8.000000
  0.425000  0.275000  0.025000      8.000000
  0.475000  0.275000  0.025000      8.000000
 -0.475000  0.275000  0.025000      8.000000
 -0.425000  0.275000  0.025000      8.000000
 -0.375000  0.275000  0.025000      8.000000
 -0.325000  0.275000  0.025000      8.000000
 -0.275000  0.275000  0.025000      4.000000
  0.325000  0.325000  0.025000      4.000000
  0.375000  0.325000  0.025000      8.000000
  0.425000  0.325000  0.025000      8.000000
  0.475000  0.325000  0.025000      8.000000
 -0.475000  0.325000  0.025000      8.000000
 -0.425000  0.325000  0.025000      8.000000
 -0.375000  0.325000  0.025000      8.000000
 -0.325000  0.325000  0.025000      4.000000
  0.375000  0.375000  0.025000      4.000000
  0.425000  0.375000  0.025000      8.000000
  0.475000  0.375000  0.025000      8.000000
 -0.475000  0.375000  0.025000      8.000000
 -0.425000  0.375000  0.025000      8.000000
 -0.375000  0.375000  0.025000      4.000000
  0.425000  0.425000  0.025000      4.000000
  0.475000  0.425000  0.025000      8.000000
 -0.475000  0.425000  0.025000      8.000000
 -0.425000  0.425000  0.025000      4.000000
  0.475000  0.475000  0.025000      4.000000
 -0.475000  0.475000  0.025000      4.000000
  0.025000  0.025000  0.075000      4.000000
  0.075000  0.025000  0.075000      8.000000
  0.125000  0.025000  0.075000      8.000000
  0.175000  0.025000  0.075000      8.000000
  0.225000  0.025000  0.075000      8.000000
  0.275000  0.025000  0.075000      8.000000
  0.325000  0.025000  0.075000      8.000000
  0.375000  0.025000  0.075000      8.000000
  0.425000  0.025000  0.075000      8.000000
  0.475000  0.025000  0.075000      8.000000
 -0.475000  0.025000  0.075000      8.000000
 -0.425000  0.025000  0.075000      8.000000
 -0.375000  0.025000  0.075000      8.000000
 -0.325000  0.025000  0.075000      8.000000
 -0.275000  0.025000  0.075000      8.000000
 -0.225000  0.025000  0.075000      8.000000
 -0.175000  0.025000  0.075000      8.000000
 -0.125000  0.025000  0.075000      8.000000
 -0.075000  0.025000  0.075000      8.000000
 -0.025000  0.025000  0.075000      4.000000
  0.075000  0.075000  0.075000      4.000000
  0.125000  0.075000  0.075000      8.000000
  0.175000  0.075000  0.075000      8.000000
  0.225000  0.075000  0.075000      8.000000
  0.275000  0.075000  0.075000      8.000000
  0.325000  0.075000  0.075000      8.000000
  0.375000  0.075000  0.075000      8.000000
  0.425000  0.075000  0.075000      8.000000
  0.475000  0.075000  0.075000      8.000000
 -0.475000  0.075000  0.075000      8.000000
 -0.425000  0.075000  0.075000      8.000000
 -0.375000  0.075000  0.075000      8.000000
 -0.325000  0.075000  0.075000      8.000000
 -0.275000  0.075000  0.075000      8.000000
 -0.225000  0.075000  0.075000      8.000000
 -0.175000  0.075000  0.075000      8.000000
 -0.125000  0.075000  0.075000      8.000000
 -0.075000  0.075000  0.075000      4.000000
  0.125000  0.125000  0.075000      4.000000
  0.175000  0.125000  0.075000      8.000000
  0.225000  0.125000  0.075000      8.000000
  0.275000  0.125000  0.075000      8.000000
  0.325000  0.125000  0.075000      8.000000
  0.375000  0.125000  0.075000      8.000000
  0.425000  0.125000  0.075000      8.000000
  0.475000  0.125000  0.075000      8.000000
 -0.475000  0.125000  0.075000      8.000000
 -0.425000  0.125000  0.075000      8.000000
 -0.375000  0.125000  0.075000      8.000000
 -0.325000  0.125000  0.075000      8.000000
 -0.275000  0.125000  0.075000      8.000000
 -0.225000  0.125000  0.075000      8.000000
 -0.175000  0.125000  0.075000      8.000000
 -0.125000  0.125000  0.075000      4.000000
  0.175000  0.175000  0.075000      4.000000
  0.225000  0.175000  0.075000      8.000000
  0.275000  0.175000  0.075000      8.000000
  0.325000  0.175000  0.075000      8.000000
  0.375000  0.175000  0.075000      8.000000
  0.425000  0.175000  0.075000      8.000000
  0.475000  0.175000  0.075000      8.000000
 -0.475000  0.175000  0.075000      8.000000
 -0.425000  0.175000  0.075000      8.000000
 -0.375000  0.175000  0.075000      8.000000
 -0.325000  0.175000  0.075000      8.000000
 -0.275000  0.175000  0.075000      8.000000
 -0.225000  0.175000  0.075000      8.000000
 -0.175000  0.175000  0.075000      4.000000
  0.225000  0.225000  0.075000      4.000000
  0.275000  0.225000  0.075000      8.000000
  0.325000  0.225000  0.075000      8.000000
  0.375000  0.225000  0.075000      8.000000
  0.425000  0.225000  0.075000      8.000000
  0.475000  0.225000  0.075000      8.000000
 -0.475000  0.225000  0.075000      8.000000
 -0.425000  0.225000  0.075000      8.000000
 -0.375000  0.225000  0.075000      8.000000
 -0.325000  0.225000  0.075000      8.000000
 -0.275000  0.225000  0.075000      8.000000
 -0.225000  0.225000  0.075000      4.000000
  0.275000  0.275000  0.075000      4.000000
  0.325000  0.275000  0.075000      8.000000
  0.375000  0.275000  0.075000      8.000000
  0.425000  0.275000  0.075000      8.000000
  0.475000  0.275000  0.075000      8.000000
 -0.475000  0.275000  0.075000      8.000000
 -0.425000  0.275000  0.075000      8.000000
 -0.375000  0.275000  0.075000      8.000000
 -0.325000  0.275000  0.075000      8.000000
 -0.275000  0.275000  0.075000      4.000000
  0.325000  0.325000  0.075000      4.000000
  0.375000  0.325000  0.075000      8.000000
  0.425000  0.325000  0.075000      8.000000
  0.475000  0.325000  0.075000      8.000000
 -0.475000  0.325000  0.075000      8.000000
 -0.425000  0.325000  0.075000      8.000000
 -0.375000  0.325000  0.075000      8.000000
 -0.325000  0.325000  0.075000      4.000000
  0.375000  0.375000  0.075000      4.000000
  0.425000  0.375000  0.075000      8.000000
  0.475000  0.375000  0.075000      8.000000
 -0.475000  0.375000  0.075000      8.000000
 -0.425000  0.375000  0.075000      8.000000
 -0.375000  0.375000  0.075000      4.000000
  0.425000  0.425000  0.075000      4.000000
  0.475000  0.425000  0.075000      8.000000
 -0.475000  0.425000  0.075000      8.000000
 -0.425000  0.425000  0.075000      4.000000
  0.475000  0.475000  0.075000      4.000000
 -0.475000  0.475000  0.075000      4.000000
  0.025000  0.025000  0.125000      4.000000
  0.075000  0.025000  0.125000      8.000000
  0.125000  0.025000  0.125000      8.000000
  0.175000  0.025000  0.125000      8.000000
  0.225000  0.025000  0.125000      8.000000
  0.275000  0.025000  0.125000      8.000000
  0.325000  0.025000  0.125000      8.000000
  0.375000  0.025000  0.125000      8.000000
  0.425000  0.025000  0.125000      8.000000
  0.475000  0.025000  0.125000      8.000000
 -0.475000  0.025000  0.125000      8.000000
 -0.425000  0.025000  0.125000      8.000000
 -0.375000  0.025000  0.125000      8.000000
 -0.325000  0.025000  0.125000      8.000000
 -0.275000  0.025000  0.125000      8.000000
 -0.225000  0.025000  0.125000      8.000000
 -0.175000  0.025000  0.125000      8.000000
 -0.125000  0.025000  0.125000      8.000000
 -0.075000  0.025000  0.125000      8.000000
 -0.025000  0.025000  0.125000      4.000000
  0.075000  0.075000  0.125000      4.000000
  0.125000  0.075000  0.125000      8.000000
  0.175000  0.075000  0.125000      8.000000
  0.225000  0.075000  0.125000      8.000000
  0.275000  0.075000  0.125000      8.000000
  0.325000  0.075000  0.125000      8.000000
  0.375000  0.075000  0.125000      8.000000
  0.425000  0.075000  0.125000      8.000000
  0.475000  0.075000  0.125000      8.000000
 -0.475000  0.075000  0.125000      8.000000
 -0.425000  0.075000  0.125000      8.000000
 -0.375000  0.075000  0.125000      8.000000
 -0.325000  0.075000  0.125000      8.000000
 -0.275000  0.075000  0.125000      8.000000
 -0.225000  0.075000  0.125000      8.000000
 -0.175000  0.075000  0.125000      8.000000
 -0.125000  0.075000  0.125000      8.000000
 -0.075000  0.075000  0.125000      4.000000
  0.125000  0.125000  0.125000      4.000000
  0.175000  0.125000  0.125000      8.000000
  0.225000  0.125000  0.125000      8.000000
  0.275000  0.125000  0.125000      8.000000
  0.325000  0.125000  0.125000      8.000000
  0.375000  0.125000  0.125000      8.000000
  0.425000  0.125000  0.125000      8.000000
  0.475000  0.125000  0.125000      8.000000
 -0.475000  0.125000  0.125000      8.000000
 -0.425000  0.125000  0.125000      8.000000
 -0.375000  0.125000  0.125000      8.000000
 -0.325000  0.125000  0.125000      8.000000
 -0.275000  0.125000  0.125000      8.000000
 -0.225000  0.125000  0.125000      8.000000
 -0.175000  0.125000  0.125000      8.000000
 -0.125000  0.125000  0.125000      4.000000
  0.175000  0.175000  0.125000      4.000000
  0.225000  0.175000  0.125000      8.000000
  0.275000  0.175000  0.125000      8.000000
  0.325000  0.175000  0.125000      8.000000
  0.375000  0.175000  0.125000      8.000000
  0.425000  0.175000  0.125000      8.000000
  0.475000  0.175000  0.125000      8.000000
 -0.475000  0.175000  0.125000      8.000000
 -0.425000  0.175000  0.125000      8.000000
 -0.375000  0.175000  0.125000      8.000000
 -0.325000  0.175000  0.125000      8.000000
 -0.275000  0.175000  0.125000      8.000000
 -0.225000  0.175000  0.125000      8.000000
 -0.175000  0.175000  0.125000      4.000000
  0.225000  0.225000  0.125000      4.000000
  0.275000  0.225000  0.125000      8.000000
  0.325000  0.225000  0.125000      8.000000
  0.375000  0.225000  0.125000      8.000000
  0.425000  0.225000  0.125000      8.000000
  0.475000  0.225000  0.125000      8.000000
 -0.475000  0.225000  0.125000      8.000000
 -0.425000  0.225000  0.125000      8.000000
 -0.375000  0.225000  0.125000      8.000000
 -0.325000  0.225000  0.125000      8.000000
 -0.275000  0.225000  0.125000      8.000000
 -0.225000  0.225000  0.125000      4.000000
  0.275000  0.275000  0.125000      4.000000
  0.325000  0.275000  0.125000      8.000000
  0.375000  0.275000  0.125000      8.000000
  0.425000  0.275000  0.125000      8.000000
  0.475000  0.275000  0.125000      8.000000
 -0.475000  0.275000  0.125000      8.000000
 -0.425000  0.275000  0.125000      8.000000
 -0.375000  0.275000  0.125000      8.000000
 -0.325000  0.275000  0.125000      8.000000
 -0.275000  0.275000  0.125000      4.000000
  0.325000  0.325000  0.125000      4.000000
  0.375000  0.325000  0.125000      8.000000
  0.425000  0.325000  0.125000      8.000000
  0.475000  0.325000  0.125000      8.000000
 -0.475000  0.325000  0.125000      8.000000
 -0.425000  0.325000  0.125000      8.000000
 -0.375000  0.325000  0.125000      8.000000
 -0.325000  0.325000  0.125000      4.000000
  0.375000  0.375000  0.125000      4.000000
  0.425000  0.375000  0.125000      8.000000
  0.475000  0.375000  0.125000      8.000000
 -0.475000  0.375000  0.125000      8.000000
 -0.425000  0.375000  0.125000      8.000000
 -0.375000  0.375000  0.125000      4.000000
  0.425000  0.425000  0.125000      4.000000
  0.475000  0.425000  0.125000      8.000000
 -0.475000  0.425000  0.125000      8.000000
 -0.425000  0.425000  0.125000      4.000000
  0.475000  0.475000  0.125000      4.000000
 -0.475000  0.475000  0.125000      4.000000
  0.025000  0.025000  0.175000      4.000000
  0.075000  0.025000  0.175000      8.000000
  0.125000  0.025000  0.175000      8.000000
  0.175000  0.025000  0.175000      8.000000
  0.225000  0.025000  0.175000      8.000000
  0.275000  0.025000  0.175000      8.000000
  0.325000  0.025000  0.175000      8.000000
  0.375000  0.025000  0.175000      8.000000
  0.425000  0.025000  0.175000      8.000000
  0.475000  0.025000  0.175000      8.000000
 -0.475000  0.025000  0.175000      8.000000
 -0.425000  0.025000  0.175000      8.000000
 -0.375000  0.025000  0.175000      8.000000
 -0.325000  0.025000  0.175000      8.000000
 -0.275000  0.025000  0.175000      8.000000
 -0.225000  0.025000  0.175000      8.000000
 -0.175000  0.025000  0.175000      8.000000
 -0.125000  0.025000  0.175000      8.000000
 -0.075000  0.025000  0.175000      8.000000
 -0.025000  0.025000  0.175000      4.000000
  0.075000  0.075000  0.175000      4.000000
  0.125000  0.075000  0.175000      8.000000
  0.175000  0.075000  0.175000      8.000000
  0.225000  0.075000  0.175000      8.000000
  0.275000  0.075000  0.175000      8.000000
  0.325000  0.075000  0.175000      8.000000
  0.375000  0.075000  0.175000      8.000000
  0.425000  0.075000  0.175000      8.000000
  0.475000  0.075000  0.175000      8.000000
 -0.475000  0.075000  0.175000      8.000000
 -0.425000  0.075000  0.175000      8.000000
 -0.375000  0.075000  0.175000      8.000000
 -0.325000  0.075000  0.175000      8.000000
 -0.275000  0.075000  0.175000      8.000000
 -0.225000  0.075000  0.175000      8.000000
 -0.175000  0.075000  0.175000      8.000000
 -0.125000  0.075000  0.175000      8.000000
 -0.075000  0.075000  0.175000      4.000000
  0.125000  0.125000  0.175000      4.000000
  0.175000  0.125000  0.175000      8.000000
  0.225000  0.125000  0.175000      8.000000
  0.275000  0.125000  0.175000      8.000000
  0.325000  0.125000  0.175000      8.000000
  0.375000  0.125000  0.175000      8.000000
  0.425000  0.125000  0.175000      8.000000
  0.475000  0.125000  0.175000      8.000000
 -0.475000  0.125000  0.175000      8.000000
 -0.425000  0.125000  0.175000      8.000000
 -0.375000  0.125000  0.175000      8.000000
 -0.325000  0.125000  0.175000      8.000000
 -0.275000  0.125000  0.175000      8.000000
 -0.225000  0.125000  0.175000      8.000000
 -0.175000  0.125000  0.175000      8.000000
 -0.125000  0.125000  0.175000      4.000000
  0.175000  0.175000  0.175000      4.000000
  0.225000  0.175000  0.175000      8.000000
  0.275000  0.175000  0.175000      8.000000
  0.325000  0.175000  0.175000      8.000000
  0.375000  0.175000  0.175000      8.000000
  0.425000  0.175000  0.175000      8.000000
  0.475000  0.175000  0.175000      8.000000
 -0.475000  0.175000  0.175000      8.000000
 -0.425000  0.175000  0.175000      8.000000
 -0.375000  0.175000  0.175000      8.000000
 -0.325000  0.175000  0.175000      8.000000
 -0.275000  0.175000  0.175000      8.000000
 -0.225000  0.175000  0.175000      8.000000
 -0.175000  0.175000  0.175000      4.000000
  0.225000  0.225000  0.175000      4.000000
  0.275000  0.225000  0.175000      8.000000
  0.325000  0.225000  0.175000      8.000000
  0.375000  0.225000  0.175000      8.000000
  0.425000  0.225000  0.175000      8.000000
  0.475000  0.225000  0.175000      8.000000
 -0.475000  0.225000  0.175000      8.000000
 -0.425000  0.225000  0.175000      8.000000
 -0.375000  0.225000  0.175000      8.000000
 -0.325000  0.225000  0.175000      8.000000
 -0.275000  0.225000  0.175000      8.000000
 -0.225000  0.225000  0.175000      4.000000
  0.275000  0.275000  0.175000      4.000000
  0.325000  0.275000  0.175000      8.000000
  0.375000  0.275000  0.175000      8.000000
  0.425000  0.275000  0.175000      8.000000
  0.475000  0.275000  0.175000      8.000000
 -0.475000  0.275000  0.175000      8.000000
 -0.425000  0.275000  0.175000      8.000000
 -0.375000  0.275000  0.175000      8.000000
 -0.325000  0.275000  0.175000      8.000000
 -0.275000  0.275000  0.175000      4.000000
  0.325000  0.325000  0.175000      4.000000
  0.375000  0.325000  0.175000      8.000000
  0.425000  0.325000  0.175000      8.000000
  0.475000  0.325000  0.175000      8.000000
 -0.475000  0.325000  0.175000      8.000000
 -0.425000  0.325000  0.175000      8.000000
 -0.375000  0.325000  0.175000      8.000000
 -0.325000  0.325000  0.175000      4.000000
  0.375000  0.375000  0.175000      4.000000
  0.425000  0.375000  0.175000      8.000000
  0.475000  0.375000  0.175000      8.000000
 -0.475000  0.375000  0.175000      8.000000
 -0.425000  0.375000  0.175000      8.000000
 -0.375000  0.375000  0.175000      4.000000
  0.425000  0.425000  0.175000      4.000000
  0.475000  0.425000  0.175000      8.000000
 -0.475000  0.425000  0.175000      8.000000
 -0.425000  0.425000  0.175000      4.000000
  0.475000  0.475000  0.175000      4.000000
 -0.475000  0.475000  0.175000      4.000000
  0.025000  0.025000  0.225000      4.000000
  0.075000  0.025000  0.225000      8.000000
  0.125000  0.025000  0.225000      8.000000
  0.175000  0.025000  0.225000      8.000000
  0.225000  0.025000  0.225000      8.000000
  0.275000  0.025000  0.225000      8.000000
  0.325000  0.025000  0.225000      8.000000
  0.375000  0.025000  0.225000      8.000000
  0.425000  0.025000  0.225000      8.000000
  0.475000  0.025000  0.225000      8.000000
 -0.475000  0.025000  0.225000      8.000000
 -0.425000  0.025000  0.225000      8.000000
 -0.375000  0.025000  0.225000      8.000000
 -0.325000  0.025000  0.225000      8.000000
 -0.275000  0.025000  0.225000      8.000000
 -0.225000  0.025000  0.225000      8.000000
 -0.175000  0.025000  0.225000      8.000000
 -0.125000  0.025000  0.225000      8.000000
 -0.075000  0.025000  0.225000      8.000000
 -0.025000  0.025000  0.225000      4.000000
  0.075000  0.075000  0.225000      4.000000
  0.125000  0.075000  0.225000      8.000000
  0.175000  0.075000  0.225000      8.000000
  0.225000  0.075000  0.225000      8.000000
  0.275000  0.075000  0.225000      8.000000
  0.325000  0.075000  0.225000      8.000000
  0.375000  0.075000  0.225000      8.000000
  0.425000  0.075000  0.225000      8.000000
  0.475000  0.075000  0.225000      8.000000
 -0.475000  0.075000  0.225000      8.000000
 -0.425000  0.075000  0.225000      8.000000
 -0.375000  0.075000  0.225000      8.000000
 -0.325000  0.075000  0.225000      8.000000
 -0.275000  0.075000  0.225000      8.000000
 -0.225000  0.075000  0.225000      8.000000
 -0.175000  0.075000  0.225000      8.000000
 -0.125000  0.075000  0.225000      8.000000
 -0.075000  0.075000  0.225000      4.000000
  0.125000  0.125000  0.225000      4.000000
  0.175000  0.125000  0.225000      8.000000
  0.225000  0.125000  0.225000      8.000000
  0.275000  0.125000  0.225000      8.000000
  0.325000  0.125000  0.225000      8.000000
  0.375000  0.125000  0.225000      8.000000
  0.425000  0.125000  0.225000      8.000000
  0.475000  0.125000  0.225000      8.000000
 -0.475000  0.125000  0.225000      8.000000
 -0.425000  0.125000  0.225000      8.000000
 -0.375000  0.125000  0.225000      8.000000
 -0.325000  0.125000  0.225000      8.000000
 -0.275000  0.125000  0.225000      8.000000
 -0.225000  0.125000  0.225000      8.000000
 -0.175000  0.125000  0.225000      8.000000
 -0.125000  0.125000  0.225000      4.000000
  0.175000  0.175000  0.225000      4.000000
  0.225000  0.175000  0.225000      8.000000
  0.275000  0.175000  0.225000      8.000000
  0.325000  0.175000  0.225000      8.000000
  0.375000  0.175000  0.225000      8.000000
  0.425000  0.175000  0.225000      8.000000
  0.475000  0.175000  0.225000      8.000000
 -0.475000  0.175000  0.225000      8.000000
 -0.425000  0.175000  0.225000      8.000000
 -0.375000  0.175000  0.225000      8.000000
 -0.325000  0.175000  0.225000      8.000000
 -0.275000  0.175000  0.225000      8.000000
 -0.225000  0.175000  0.225000      8.000000
 -0.175000  0.175000  0.225000      4.000000
  0.225000  0.225000  0.225000      4.000000
  0.275000  0.225000  0.225000      8.000000
  0.325000  0.225000  0.225000      8.000000
  0.375000  0.225000  0.225000      8.000000
  0.425000  0.225000  0.225000      8.000000
  0.475000  0.225000  0.225000      8.000000
 -0.475000  0.225000  0.225000      8.000000
 -0.425000  0.225000  0.225000      8.000000
 -0.375000  0.225000  0.225000      8.000000
 -0.325000  0.225000  0.225000      8.000000
 -0.275000  0.225000  0.225000      8.000000
 -0.225000  0.225000  0.225000      4.000000
  0.275000  0.275000  0.225000      4.000000
  0.325000  0.275000  0.225000      8.000000
  0.375000  0.275000  0.225000      8.000000
  0.425000  0.275000  0.225000      8.000000
  0.475000  0.275000  0.225000      8.000000
 -0.475000  0.275000  0.225000      8.000000
 -0.425000  0.275000  0.225000      8.000000
 -0.375000  0.275000  0.225000      8.000000
 -0.325000  0.275000  0.225000      8.000000
 -0.275000  0.275000  0.225000      4.000000
  0.325000  0.325000  0.225000      4.000000
  0.375000  0.325000  0.225000      8.000000
  0.425000  0.325000  0.225000      8.000000
  0.475000  0.325000  0.225000      8.000000
 -0.475000  0.325000  0.225000      8.000000
 -0.425000  0.325000  0.225000      8.000000
 -0.375000  0.325000  0.225000      8.000000
 -0.325000  0.325000  0.225000      4.000000
  0.375000  0.375000  0.225000      4.000000
  0.425000  0.375000  0.225000      8.000000
  0.475000  0.375000  0.225000      8.000000
 -0.475000  0.375000  0.225000      8.000000
 -0.425000  0.375000  0.225000      8.000000
 -0.375000  0.375000  0.225000      4.000000
  0.425000  0.425000  0.225000      4.000000
  0.475000  0.425000  0.225000      8.000000
 -0.475000  0.425000  0.225000      8.000000
 -0.425000  0.425000  0.225000      4.000000
  0.475000  0.475000  0.225000      4.000000
 -0.475000  0.475000  0.225000      4.000000
  0.025000  0.025000  0.275000      4.000000
  0.075000  0.025000  0.275000      8.000000
  0.125000  0.025000  0.275000      8.000000
  0.175000  0.025000  0.275000      8.000000
  0.225000  0.025000  0.275000      8.000000
  0.275000  0.025000  0.275000      8.000000
  0.325000  0.025000  0.275000      8.000000
  0.375000  0.025000  0.275000      8.000000
  0.425000  0.025000  0.275000      8.000000
  0.475000  0.025000  0.275000      8.000000
 -0.475000  0.025000  0.275000      8.000000
 -0.425000  0.025000  0.275000      8.000000
 -0.375000  0.025000  0.275000      8.000000
 -0.325000  0.025000  0.275000      8.000000
 -0.275000  0.025000  0.275000      8.000000
 -0.225000  0.025000  0.275000      8.000000
 -0.175000  0.025000  0.275000      8.000000
 -0.125000  0.025000  0.275000      8.000000
 -0.075000  0.025000  0.275000      8.000000
 -0.025000  0.025000  0.275000      4.000000
  0.075000  0.075000  0.275000      4.000000
  0.125000  0.075000  0.275000      8.000000
  0.175000  0.075000  0.275000      8.000000
  0.225000  0.075000  0.275000      8.000000
  0.275000  0.075000  0.275000      8.000000
  0.325000  0.075000  0.275000      8.000000
  0.375000  0.075000  0.275000      8.000000
  0.425000  0.075000  0.275000      8.000000
  0.475000  0.075000  0.275000      8.000000
 -0.475000  0.075000  0.275000      8.000000
 -0.425000  0.075000  0.275000      8.000000
 -0.375000  0.075000  0.275000      8.000000
 -0.325000  0.075000  0.275000      8.000000
 -0.275000  0.075000  0.275000      8.000000
 -0.225000  0.075000  0.275000      8.000000
 -0.175000  0.075000  0.275000      8.000000
 -0.125000  0.075000  0.275000      8.000000
 -0.075000  0.075000  0.275000      4.000000
  0.125000  0.125000  0.275000      4.000000
  0.175000  0.125000  0.275000      8.000000
  0.225000  0.125000  0.275000      8.000000
  0.275000  0.125000  0.275000      8.000000
  0.325000  0.125000  0.275000      8.000000
  0.375000  0.125000  0.275000      8.000000
  0.425000  0.125000  0.275000      8.000000
  0.475000  0.125000  0.275000      8.000000
 -0.475000  0.125000  0.275000      8.000000
 -0.425000  0.125000  0.275000      8.000000
 -0.375000  0.125000  0.275000      8.000000
 -0.325000  0.125000  0.275000      8.000000
 -0.275000  0.125000  0.275000      8.000000
 -0.225000  0.125000  0.275000      8.000000
 -0.175000  0.125000  0.275000      8.000000
 -0.125000  0.125000  0.275000      4.000000
  0.175000  0.175000  0.275000      4.000000
  0.225000  0.175000  0.275000      8.000000
  0.275000  0.175000  0.275000      8.000000
  0.325000  0.175000  0.275000      8.000000
  0.375000  0.175000  0.275000      8.000000
  0.425000  0.175000  0.275000      8.000000
  0.475000  0.175000  0.275000      8.000000
 -0.475000  0.175000  0.275000      8.000000
 -0.425000  0.175000  0.275000      8.000000
 -0.375000  0.175000  0.275000      8.000000
 -0.325000  0.175000  0.275000      8.000000
 -0.275000  0.175000  0.275000      8.000000
 -0.225000  0.175000  0.275000      8.000000
 -0.175000  0.175000  0.275000      4.000000
  0.225000  0.225000  0.275000      4.000000
  0.275000  0.225000  0.275000      8.000000
  0.325000  0.225000  0.275000      8.000000
  0.375000  0.225000  0.275000      8.000000
  0.425000  0.225000  0.275000      8.000000
  0.475000  0.225000  0.275000      8.000000
 -0.475000  0.225000  0.275000      8.000000
 -0.425000  0.225000  0.275000      8.000000
 -0.375000  0.225000  0.275000      8.000000
 -0.325000  0.225000  0.275000      8.000000
 -0.275000  0.225000  0.275000      8.000000
 -0.225000  0.225000  0.275000      4.000000
  0.275000  0.275000  0.275000      4.000000
  0.325000  0.275000  0.275000      8.000000
  0.375000  0.275000  0.275000      8.000000
  0.425000  0.275000  0.275000      8.000000
  0.475000  0.275000  0.275000      8.000000
 -0.475000  0.275000  0.275000      8.000000
 -0.425000  0.275000  0.275000      8.000000
 -0.375000  0.275000  0.275000      8.000000
 -0.325000  0.275000  0.275000      8.000000
 -0.275000  0.275000  0.275000      4.000000
  0.325000  0.325000  0.275000      4.000000
  0.375000  0.325000  0.275000      8.000000
  0.425000  0.325000  0.275000      8.000000
  0.475000  0.325000  0.275000      8.000000
 -0.475000  0.325000  0.275000      8.000000
 -0.425000  0.325000  0.275000      8.000000
 -0.375000  0.325000  0.275000      8.000000
 -0.325000  0.325000  0.275000      4.000000
  0.375000  0.375000  0.275000      4.000000
  0.425000  0.375000  0.275000      8.000000
  0.475000  0.375000  0.275000      8.000000
 -0.475000  0.375000  0.275000      8.000000
 -0.425000  0.375000  0.275000      8.000000
 -0.375000  0.375000  0.275000      4.000000
  0.425000  0.425000  0.275000      4.000000
  0.475000  0.425000  0.275000      8.000000
 -0.475000  0.425000  0.275000      8.000000
 -0.425000  0.425000  0.275000      4.000000
  0.475000  0.475000  0.275000      4.000000
 -0.475000  0.475000  0.275000      4.000000
  0.025000  0.025000  0.325000      4.000000
  0.075000  0.025000  0.325000      8.000000
  0.125000  0.025000  0.325000      8.000000
  0.175000  0.025000  0.325000      8.000000
  0.225000  0.025000  0.325000      8.000000
  0.275000  0.025000  0.325000      8.000000
  0.325000  0.025000  0.325000      8.000000
  0.375000  0.025000  0.325000      8.000000
  0.425000  0.025000  0.325000      8.000000
  0.475000  0.025000  0.325000      8.000000
 -0.475000  0.025000  0.325000      8.000000
 -0.425000  0.025000  0.325000      8.000000
 -0.375000  0.025000  0.325000      8.000000
 -0.325000  0.025000  0.325000      8.000000
 -0.275000  0.025000  0.325000      8.000000
 -0.225000  0.025000  0.325000      8.000000
 -0.175000  0.025000  0.325000      8.000000
 -0.125000  0.025000  0.325000      8.000000
 -0.075000  0.025000  0.325000      8.000000
 -0.025000  0.025000  0.325000      4.000000
  0.075000  0.075000  0.325000      4.000000
  0.125000  0.075000  0.325000      8.000000
  0.175000  0.075000  0.325000      8.000000
  0.225000  0.075000  0.325000      8.000000
  0.275000  0.075000  0.325000      8.000000
  0.325000  0.075000  0.325000      8.000000
  0.375000  0.075000  0.325000      8.000000
  0.425000  0.075000  0.325000      8.000000
  0.475000  0.075000  0.325000      8.000000
 -0.475000  0.075000  0.325000      8.000000
 -0.425000  0.075000  0.325000      8.000000
 -0.375000  0.075000  0.325000      8.000000
 -0.325000  0.075000  0.325000      8.000000
 -0.275000  0.075000  0.325000      8.000000
 -0.225000  0.075000  0.325000      8.000000
 -0.175000  0.075000  0.325000      8.000000
 -0.125000  0.075000  0.325000      8.000000
 -0.075000  0.075000  0.325000      4.000000
  0.125000  0.125000  0.325000      4.000000
  0.175000  0.125000  0.325000      8.000000
  0.225000  0.125000  0.325000      8.000000
  0.275000  0.125000  0.325000      8.000000
  0.325000  0.125000  0.325000      8.000000
  0.375000  0.125000  0.325000      8.000000
  0.425000  0.125000  0.325000      8.000000
  0.475000  0.125000  0.325000      8.000000
 -0.475000  0.125000  0.325000      8.000000
 -0.425000  0.125000  0.325000      8.000000
 -0.375000  0.125000  0.325000      8.000000
 -0.325000  0.125000  0.325000      8.000000
 -0.275000  0.125000  0.325000      8.000000
 -0.225000  0.125000  0.325000      8.000000
 -0.175000  0.125000  0.325000      8.000000
 -0.125000  0.125000  0.325000      4.000000
  0.175000  0.175000  0.325000      4.000000
  0.225000  0.175000  0.325000      8.000000
  0.275000  0.175000  0.325000      8.000000
  0.325000  0.175000  0.325000      8.000000
  0.375000  0.175000  0.325000      8.000000
  0.425000  0.175000  0.325000      8.000000
  0.475000  0.175000  0.325000      8.000000
 -0.475000  0.175000  0.325000      8.000000
 -0.425000  0.175000  0.325000      8.000000
 -0.375000  0.175000  0.325000      8.000000
 -0.325000  0.175000  0.325000      8.000000
 -0.275000  0.175000  0.325000      8.000000
 -0.225000  0.175000  0.325000      8.000000
 -0.175000  0.175000  0.325000      4.000000
  0.225000  0.225000  0.325000      4.000000
  0.275000  0.225000  0.325000      8.000000
  0.325000  0.225000  0.325000      8.000000
  0.375000  0.225000  0.325000      8.000000
  0.425000  0.225000  0.325000      8.000000
  0.475000  0.225000  0.325000      8.000000
 -0.475000  0.225000  0.325000      8.000000
 -0.425000  0.225000  0.325000      8.000000
 -0.375000  0.225000  0.325000      8.000000
 -0.325000  0.225000  0.325000      8.000000
 -0.275000  0.225000  0.325000      8.000000
 -0.225000  0.225000  0.325000      4.000000
  0.275000  0.275000  0.325000      4.000000
  0.325000  0.275000  0.325000      8.000000
  0.375000  0.275000  0.325000      8.000000
  0.425000  0.275000  0.325000      8.000000
  0.475000  0.275000  0.325000      8.000000
 -0.475000  0.275000  0.325000      8.000000
 -0.425000  0.275000  0.325000      8.000000
 -0.375000  0.275000  0.325000      8.000000
 -0.325000  0.275000  0.325000      8.000000
 -0.275000  0.275000  0.325000      4.000000
  0.325000  0.325000  0.325000      4.000000
  0.375000  0.325000  0.325000      8.000000
  0.425000  0.325000  0.325000      8.000000
  0.475000  0.325000  0.325000      8.000000
 -0.475000  0.325000  0.325000      8.000000
 -0.425000  0.325000  0.325000      8.000000
 -0.375000  0.325000  0.325000      8.000000
 -0.325000  0.325000  0.325000      4.000000
  0.375000  0.375000  0.325000      4.000000
  0.425000  0.375000  0.325000      8.000000
  0.475000  0.375000  0.325000      8.000000
 -0.475000  0.375000  0.325000      8.000000
 -0.425000  0.375000  0.325000      8.000000
 -0.375000  0.375000  0.325000      4.000000
  0.425000  0.425000  0.325000      4.000000
  0.475000  0.425000  0.325000      8.000000
 -0.475000  0.425000  0.325000      8.000000
 -0.425000  0.425000  0.325000      4.000000
  0.475000  0.475000  0.325000      4.000000
 -0.475000  0.475000  0.325000      4.000000
  0.025000  0.025000  0.375000      4.000000
  0.075000  0.025000  0.375000      8.000000
  0.125000  0.025000  0.375000      8.000000
  0.175000  0.025000  0.375000      8.000000
  0.225000  0.025000  0.375000      8.000000
  0.275000  0.025000  0.375000      8.000000
  0.325000  0.025000  0.375000      8.000000
  0.375000  0.025000  0.375000      8.000000
  0.425000  0.025000  0.375000      8.000000
  0.475000  0.025000  0.375000      8.000000
 -0.475000  0.025000  0.375000      8.000000
 -0.425000  0.025000  0.375000      8.000000
 -0.375000  0.025000  0.375000      8.000000
 -0.325000  0.025000  0.375000      8.000000
 -0.275000  0.025000  0.375000      8.000000
 -0.225000  0.025000  0.375000      8.000000
 -0.175000  0.025000  0.375000      8.000000
 -0.125000  0.025000  0.375000      8.000000
 -0.075000  0.025000  0.375000      8.000000
 -0.025000  0.025000  0.375000      4.000000
  0.075000  0.075000  0.375000      4.000000
  0.125000  0.075000  0.375000      8.000000
  0.175000  0.075000  0.375000      8.000000
  0.225000  0.075000  0.375000      8.000000
  0.275000  0.075000  0.375000      8.000000
  0.325000  0.075000  0.375000      8.000000
  0.375000  0.075000  0.375000      8.000000
  0.425000  0.075000  0.375000      8.000000
  0.475000  0.075000  0.375000      8.000000
 -0.475000  0.075000  0.375000      8.000000
 -0.425000  0.075000  0.375000      8.000000
 -0.375000  0.075000  0.375000      8.000000
 -0.325000  0.075000  0.375000      8.000000
 -0.275000  0.075000  0.375000      8.000000
 -0.225000  0.075000  0.375000      8.000000
 -0.175000  0.075000  0.375000      8.000000
 -0.125000  0.075000  0.375000      8.000000
 -0.075000  0.075000  0.375000      4.000000
  0.125000  0.125000  0.375000      4.000000
  0.175000  0.125000  0.375000      8.000000
  0.225000  0.125000  0.375000      8.000000
  0.275000  0.125000  0.375000      8.000000
  0.325000  0.125000  0.375000      8.000000
  0.375000  0.125000  0.375000      8.000000
  0.425000  0.125000  0.375000      8.000000
  0.475000  0.125000  0.375000      8.000000
 -0.475000  0.125000  0.375000      8.000000
 -0.425000  0.125000  0.375000      8.000000
 -0.375000  0.125000  0.375000      8.000000
 -0.325000  0.125000  0.375000      8.000000
 -0.275000  0.125000  0.375000      8.000000
 -0.225000  0.125000  0.375000      8.000000
 -0.175000  0.125000  0.375000      8.000000
 -0.125000  0.125000  0.375000      4.000000
  0.175000  0.175000  0.375000      4.000000
  0.225000  0.175000  0.375000      8.000000
  0.275000  0.175000  0.375000      8.000000
  0.325000  0.175000  0.375000      8.000000
  0.375000  0.175000  0.375000      8.000000
  0.425000  0.175000  0.375000      8.000000
  0.475000  0.175000  0.375000      8.000000
 -0.475000  0.175000  0.375000      8.000000
 -0.425000  0.175000  0.375000      8.000000
 -0.375000  0.175000  0.375000      8.000000
 -0.325000  0.175000  0.375000      8.000000
 -0.275000  0.175000  0.375000      8.000000
 -0.225000  0.175000  0.375000      8.000000
 -0.175000  0.175000  0.375000      4.000000
  0.225000  0.225000  0.375000      4.000000
  0.275000  0.225000  0.375000      8.000000
  0.325000  0.225000  0.375000      8.000000
  0.375000  0.225000  0.375000      8.000000
  0.425000  0.225000  0.375000      8.000000
  0.475000  0.225000  0.375000      8.000000
 -0.475000  0.225000  0.375000      8.000000
 -0.425000  0.225000  0.375000      8.000000
 -0.375000  0.225000  0.375000      8.000000
 -0.325000  0.225000  0.375000      8.000000
 -0.275000  0.225000  0.375000      8.000000
 -0.225000  0.225000  0.375000      4.000000
  0.275000  0.275000  0.375000      4.000000
  0.325000  0.275000  0.375000      8.000000
  0.375000  0.275000  0.375000      8.000000
  0.425000  0.275000  0.375000      8.000000
  0.475000  0.275000  0.375000      8.000000
 -0.475000  0.275000  0.375000      8.000000
 -0.425000  0.275000  0.375000      8.000000
 -0.375000  0.275000  0.375000      8.000000
 -0.325000  0.275000  0.375000      8.000000
 -0.275000  0.275000  0.375000      4.000000
  0.325000  0.325000  0.375000      4.000000
  0.375000  0.325000  0.375000      8.000000
  0.425000  0.325000  0.375000      8.000000
  0.475000  0.325000  0.375000      8.000000
 -0.475000  0.325000  0.375000      8.000000
 -0.425000  0.325000  0.375000      8.000000
 -0.375000  0.325000  0.375000      8.000000
 -0.325000  0.325000  0.375000      4.000000
  0.375000  0.375000  0.375000      4.000000
  0.425000  0.375000  0.375000      8.000000
  0.475000  0.375000  0.375000      8.000000
 -0.475000  0.375000  0.375000      8.000000
 -0.425000  0.375000  0.375000      8.000000
 -0.375000  0.375000  0.375000      4.000000
  0.425000  0.425000  0.375000      4.000000
  0.475000  0.425000  0.375000      8.000000
 -0.475000  0.425000  0.375000      8.000000
 -0.425000  0.425000  0.375000      4.000000
  0.475000  0.475000  0.375000      4.000000
 -0.475000  0.475000  0.375000      4.000000
  0.025000  0.025000  0.425000      4.000000
  0.075000  0.025000  0.425000      8.000000
  0.125000  0.025000  0.425000      8.000000
  0.175000  0.025000  0.425000      8.000000
  0.225000  0.025000  0.425000      8.000000
  0.275000  0.025000  0.425000      8.000000
  0.325000  0.025000  0.425000      8.000000
  0.375000  0.025000  0.425000      8.000000
  0.425000  0.025000  0.425000      8.000000
  0.475000  0.025000  0.425000      8.000000
 -0.475000  0.025000  0.425000      8.000000
 -0.425000  0.025000  0.425000      8.000000
 -0.375000  0.025000  0.425000      8.000000
 -0.325000  0.025000  0.425000      8.000000
 -0.275000  0.025000  0.425000      8.000000
 -0.225000  0.025000  0.425000      8.000000
 -0.175000  0.025000  0.425000      8.000000
 -0.125000  0.025000  0.425000      8.000000
 -0.075000  0.025000  0.425000      8.000000
 -0.025000  0.025000  0.425000      4.000000
  0.075000  0.075000  0.425000      4.000000
  0.125000  0.075000  0.425000      8.000000
  0.175000  0.075000  0.425000      8.000000
  0.225000  0.075000  0.425000      8.000000
  0.275000  0.075000  0.425000      8.000000
  0.325000  0.075000  0.425000      8.000000
  0.375000  0.075000  0.425000      8.000000
  0.425000  0.075000  0.425000      8.000000
  0.475000  0.075000  0.425000      8.000000
 -0.475000  0.075000  0.425000      8.000000
 -0.425000  0.075000  0.425000      8.000000
 -0.375000  0.075000  0.425000      8.000000
 -0.325000  0.075000  0.425000      8.000000
 -0.275000  0.075000  0.425000      8.000000
 -0.225000  0.075000  0.425000      8.000000
 -0.175000  0.075000  0.425000      8.000000
 -0.125000  0.075000  0.425000      8.000000
 -0.075000  0.075000  0.425000      4.000000
  0.125000  0.125000  0.425000      4.000000
  0.175000  0.125000  0.425000      8.000000
  0.225000  0.125000  0.425000      8.000000
  0.275000  0.125000  0.425000      8.000000
  0.325000  0.125000  0.425000      8.000000
  0.375000  0.125000  0.425000      8.000000
  0.425000  0.125000  0.425000      8.000000
  0.475000  0.125000  0.425000      8.000000
 -0.475000  0.125000  0.425000      8.000000
 -0.425000  0.125000  0.425000      8.000000
 -0.375000  0.125000  0.425000      8.000000
 -0.325000  0.125000  0.425000      8.000000
 -0.275000  0.125000  0.425000      8.000000
 -0.225000  0.125000  0.425000      8.000000
 -0.175000  0.125000  0.425000      8.000000
 -0.125000  0.125000  0.425000      4.000000
  0.175000  0.175000  0.425000      4.000000
  0.225000  0.175000  0.425000      8.000000
  0.275000  0.175000  0.425000      8.000000
  0.325000  0.175000  0.425000      8.000000
  0.375000  0.175000  0.425000      8.000000
  0.425000  0.175000  0.425000      8.000000
  0.475000  0.175000  0.425000      8.000000
 -0.475000  0.175000  0.425000      8.000000
 -0.425000  0.175000  0.425000      8.000000
 -0.375000  0.175000  0.425000      8.000000
 -0.325000  0.175000  0.425000      8.000000
 -0.275000  0.175000  0.425000      8.000000
 -0.225000  0.175000  0.425000      8.000000
 -0.175000  0.175000  0.425000      4.000000
  0.225000  0.225000  0.425000      4.000000
  0.275000  0.225000  0.425000      8.000000
  0.325000  0.225000  0.425000      8.000000
  0.375000  0.225000  0.425000      8.000000
  0.425000  0.225000  0.425000      8.000000
  0.475000  0.225000  0.425000      8.000000
 -0.475000  0.225000  0.425000      8.000000
 -0.425000  0.225000  0.425000      8.000000
 -0.375000  0.225000  0.425000      8.000000
 -0.325000  0.225000  0.425000      8.000000
 -0.275000  0.225000  0.425000      8.000000
 -0.225000  0.225000  0.425000      4.000000
  0.275000  0.275000  0.425000      4.000000
  0.325000  0.275000  0.425000      8.000000
  0.375000  0.275000  0.425000      8.000000
  0.425000  0.275000  0.425000      8.000000
  0.475000  0.275000  0.425000      8.000000
 -0.475000  0.275000  0.425000      8.000000
 -0.425000  0.275000  0.425000      8.000000
 -0.375000  0.275000  0.425000      8.000000
 -0.325000  0.275000  0.425000      8.000000
 -0.275000  0.275000  0.425000      4.000000
  0.325000  0.325000  0.425000      4.000000
  0.375000  0.325000  0.425000      8.000000
  0.425000  0.325000  0.425000      8.000000
  0.475000  0.325000  0.425000      8.000000
 -0.475000  0.325000  0.425000      8.000000
 -0.425000  0.325000  0.425000      8.000000
 -0.375000  0.325000  0.425000      8.000000
 -0.325000  0.325000  0.425000      4.000000
  0.375000  0.375000  0.425000      4.000000
  0.425000  0.375000  0.425000      8.000000
  0.475000  0.375000  0.425000      8.000000
 -0.475000  0.375000  0.425000      8.000000
 -0.425000  0.375000  0.425000      8.000000
 -0.375000  0.375000  0.425000      4.000000
  0.425000  0.425000  0.425000      4.000000
  0.475000  0.425000  0.425000      8.000000
 -0.475000  0.425000  0.425000      8.000000
 -0.425000  0.425000  0.425000      4.000000
  0.475000  0.475000  0.425000      4.000000
 -0.475000  0.475000  0.425000      4.000000
  0.025000  0.025000  0.475000      4.000000
  0.075000  0.025000  0.475000      8.000000
  0.125000  0.025000  0.475000      8.000000
  0.175000  0.025000  0.475000      8.000000
  0.225000  0.025000  0.475000      8.000000
  0.275000  0.025000  0.475000      8.000000
  0.325000  0.025000  0.475000      8.000000
  0.375000  0.025000  0.475000      8.000000
  0.425000  0.025000  0.475000      8.000000
  0.475000  0.025000  0.475000      8.000000
 -0.475000  0.025000  0.475000      8.000000
 -0.425000  0.025000  0.475000      8.000000
 -0.375000  0.025000  0.475000      8.000000
 -0.325000  0.025000  0.475000      8.000000
 -0.275000  0.025000  0.475000      8.000000
 -0.225000  0.025000  0.475000      8.000000
 -0.175000  0.025000  0.475000      8.000000
 -0.125000  0.025000  0.475000      8.000000
 -0.075000  0.025000  0.475000      8.000000
 -0.025000  0.025000  0.475000      4.000000
  0.075000  0.075000  0.475000      4.000000
  0.125000  0.075000  0.475000      8.000000
  0.175000  0.075000  0.475000      8.000000
  0.225000  0.075000  0.475000      8.000000
  0.275000  0.075000  0.475000      8.000000
  0.325000  0.075000  0.475000      8.000000
  0.375000  0.075000  0.475000      8.000000
  0.425000  0.075000  0.475000      8.000000
  0.475000  0.075000  0.475000      8.000000
 -0.475000  0.075000  0.475000      8.000000
 -0.425000  0.075000  0.475000      8.000000
 -0.375000  0.075000  0.475000      8.000000
 -0.325000  0.075000  0.475000      8.000000
 -0.275000  0.075000  0.475000      8.000000
 -0.225000  0.075000  0.475000      8.000000
 -0.175000  0.075000  0.475000      8.000000
 -0.125000  0.075000  0.475000      8.000000
 -0.075000  0.075000  0.475000      4.000000
  0.125000  0.125000  0.475000      4.000000
  0.175000  0.125000  0.475000      8.000000
  0.225000  0.125000  0.475000      8.000000
  0.275000  0.125000  0.475000      8.000000
  0.325000  0.125000  0.475000      8.000000
  0.375000  0.125000  0.475000      8.000000
  0.425000  0.125000  0.475000      8.000000
  0.475000  0.125000  0.475000      8.000000
 -0.475000  0.125000  0.475000      8.000000
 -0.425000  0.125000  0.475000      8.000000
 -0.375000  0.125000  0.475000      8.000000
 -0.325000  0.125000  0.475000      8.000000
 -0.275000  0.125000  0.475000      8.000000
 -0.225000  0.125000  0.475000      8.000000
 -0.175000  0.125000  0.475000      8.000000
 -0.125000  0.125000  0.475000      4.000000
  0.175000  0.175000  0.475000      4.000000
  0.225000  0.175000  0.475000      8.000000
  0.275000  0.175000  0.475000      8.000000
  0.325000  0.175000  0.475000      8.000000
  0.375000  0.175000  0.475000      8.000000
  0.425000  0.175000  0.475000      8.000000
  0.475000  0.175000  0.475000      8.000000
 -0.475000  0.175000  0.475000      8.000000
 -0.425000  0.175000  0.475000      8.000000
 -0.375000  0.175000  0.475000      8.000000
 -0.325000  0.175000  0.475000      8.000000
 -0.275000  0.175000  0.475000      8.000000
 -0.225000  0.175000  0.475000      8.000000
 -0.175000  0.175000  0.475000      4.000000
  0.225000  0.225000  0.475000      4.000000
  0.275000  0.225000  0.475000      8.000000
  0.325000  0.225000  0.475000      8.000000
  0.375000  0.225000  0.475000      8.000000
  0.425000  0.225000  0.475000      8.000000
  0.475000  0.225000  0.475000      8.000000
 -0.475000  0.225000  0.475000      8.000000
 -0.425000  0.225000  0.475000      8.000000
 -0.375000  0.225000  0.475000      8.000000
 -0.325000  0.225000  0.475000      8.000000
 -0.275000  0.225000  0.475000      8.000000
 -0.225000  0.225000  0.475000      4.000000
  0.275000  0.275000  0.475000      4.000000
  0.325000  0.275000  0.475000      8.000000
  0.375000  0.275000  0.475000      8.000000
  0.425000  0.275000  0.475000      8.000000
  0.475000  0.275000  0.475000      8.000000
 -0.475000  0.275000  0.475000      8.000000
 -0.425000  0.275000  0.475000      8.000000
 -0.375000  0.275000  0.475000      8.000000
 -0.325000  0.275000  0.475000      8.000000
 -0.275000  0.275000  0.475000      4.000000
  0.325000  0.325000  0.475000      4.000000
  0.375000  0.325000  0.475000      8.000000
  0.425000  0.325000  0.475000      8.000000
  0.475000  0.325000  0.475000      8.000000
 -0.475000  0.325000  0.475000      8.000000
 -0.425000  0.325000  0.475000      8.000000
 -0.375000  0.325000  0.475000      8.000000
 -0.325000  0.325000  0.475000      4.000000
  0.375000  0.375000  0.475000      4.000000
  0.425000  0.375000  0.475000      8.000000
  0.475000  0.375000  0.475000      8.000000
 -0.475000  0.375000  0.475000      8.000000
 -0.425000  0.375000  0.475000      8.000000
 -0.375000  0.375000  0.475000      4.000000
  0.425000  0.425000  0.475000      4.000000
  0.475000  0.425000  0.475000      8.000000
 -0.475000  0.425000  0.475000      8.000000
 -0.425000  0.425000  0.475000      4.000000
  0.475000  0.475000  0.475000      4.000000
 -0.475000  0.475000  0.475000      4.000000
 
 Following cartesian coordinates:
            Coordinates               Weight
  0.006190  0.006128  0.006190      4.000000
  0.018569  0.006004  0.006190      8.000000
  0.030949  0.005881  0.006190      8.000000
  0.043328  0.005757  0.006190      8.000000
  0.055708  0.005633  0.006190      8.000000
  0.068087  0.005509  0.006190      8.000000
  0.080467  0.005385  0.006190      8.000000
  0.092846  0.005262  0.006190      8.000000
  0.105226  0.005138  0.006190      8.000000
  0.117605  0.005014  0.006190      8.000000
 -0.117605  0.007366  0.006190      8.000000
 -0.105226  0.007242  0.006190      8.000000
 -0.092846  0.007119  0.006190      8.000000
 -0.080467  0.006995  0.006190      8.000000
 -0.068087  0.006871  0.006190      8.000000
 -0.055708  0.006747  0.006190      8.000000
 -0.043328  0.006623  0.006190      8.000000
 -0.030949  0.006500  0.006190      8.000000
 -0.018569  0.006376  0.006190      8.000000
 -0.006190  0.006252  0.006190      4.000000
  0.018569  0.018385  0.006190      4.000000
  0.030949  0.018261  0.006190      8.000000
  0.043328  0.018137  0.006190      8.000000
  0.055708  0.018013  0.006190      8.000000
  0.068087  0.017889  0.006190      8.000000
  0.080467  0.017765  0.006190      8.000000
  0.092846  0.017642  0.006190      8.000000
  0.105226  0.017518  0.006190      8.000000
  0.117605  0.017394  0.006190      8.000000
 -0.117605  0.019746  0.006190      8.000000
 -0.105226  0.019623  0.006190      8.000000
 -0.092846  0.019499  0.006190      8.000000
 -0.080467  0.019375  0.006190      8.000000
 -0.068087  0.019251  0.006190      8.000000
 -0.055708  0.019127  0.006190      8.000000
 -0.043328  0.019004  0.006190      8.000000
 -0.030949  0.018880  0.006190      8.000000
 -0.018569  0.018756  0.006190      4.000000
  0.030949  0.030641  0.006190      4.000000
  0.043328  0.030517  0.006190      8.000000
  0.055708  0.030393  0.006190      8.000000
  0.068087  0.030269  0.006190      8.000000
  0.080467  0.030146  0.006190      8.000000
  0.092846  0.030022  0.006190      8.000000
  0.105226  0.029898  0.006190      8.000000
  0.117605  0.029774  0.006190      8.000000
 -0.117605  0.032126  0.006190      8.000000
 -0.105226  0.032003  0.006190      8.000000
 -0.092846  0.031879  0.006190      8.000000
 -0.080467  0.031755  0.006190      8.000000
 -0.068087  0.031631  0.006190      8.000000
 -0.055708  0.031507  0.006190      8.000000
 -0.043328  0.031384  0.006190      8.000000
 -0.030949  0.031260  0.006190      4.000000
  0.043328  0.042897  0.006190      4.000000
  0.055708  0.042773  0.006190      8.000000
  0.068087  0.042650  0.006190      8.000000
  0.080467  0.042526  0.006190      8.000000
  0.092846  0.042402  0.006190      8.000000
  0.105226  0.042278  0.006190      8.000000
  0.117605  0.042154  0.006190      8.000000
 -0.117605  0.044507  0.006190      8.000000
 -0.105226  0.044383  0.006190      8.000000
 -0.092846  0.044259  0.006190      8.000000
 -0.080467  0.044135  0.006190      8.000000
 -0.068087  0.044011  0.006190      8.000000
 -0.055708  0.043888  0.006190      8.000000
 -0.043328  0.043764  0.006190      4.000000
  0.055708  0.055154  0.006190      4.000000
  0.068087  0.055030  0.006190      8.000000
  0.080467  0.054906  0.006190      8.000000
  0.092846  0.054782  0.006190      8.000000
  0.105226  0.054658  0.006190      8.000000
  0.117605  0.054535  0.006190      8.000000
 -0.117605  0.056887  0.006190      8.000000
 -0.105226  0.056763  0.006190      8.000000
 -0.092846  0.056639  0.006190      8.000000
 -0.080467  0.056515  0.006190      8.000000
 -0.068087  0.056392  0.006190      8.000000
 -0.055708  0.056268  0.006190      4.000000
  0.068087  0.067410  0.006190      4.000000
  0.080467  0.067286  0.006190      8.000000
  0.092846  0.067162  0.006190      8.000000
  0.105226  0.067038  0.006190      8.000000
  0.117605  0.066915  0.006190      8.000000
 -0.117605  0.069267  0.006190      8.000000
 -0.105226  0.069143  0.006190      8.000000
 -0.092846  0.069019  0.006190      8.000000
 -0.080467  0.068895  0.006190      8.000000
 -0.068087  0.068772  0.006190      4.000000
  0.080467  0.079666  0.006190      4.000000
  0.092846  0.079542  0.006190      8.000000
  0.105226  0.079419  0.006190      8.000000
  0.117605  0.079295  0.006190      8.000000
 -0.117605  0.081647  0.006190      8.000000
 -0.105226  0.081523  0.006190      8.000000
 -0.092846  0.081399  0.006190      8.000000
 -0.080467  0.081276  0.006190      4.000000
  0.092846  0.091923  0.006190      4.000000
  0.105226  0.091799  0.006190      8.000000
  0.117605  0.091675  0.006190      8.000000
 -0.117605  0.094027  0.006190      8.000000
 -0.105226  0.093903  0.006190      8.000000
 -0.092846  0.093780  0.006190      4.000000
  0.105226  0.104179  0.006190      4.000000
  0.117605  0.104055  0.006190      8.000000
 -0.117605  0.106407  0.006190      8.000000
 -0.105226  0.106283  0.006190      4.000000
  0.117605  0.116435  0.006190      4.000000
 -0.117605  0.118787  0.006190      4.000000
  0.006190  0.006128  0.018569      4.000000
  0.018569  0.006004  0.018569      8.000000
  0.030949  0.005881  0.018569      8.000000
  0.043328  0.005757  0.018569      8.000000
  0.055708  0.005633  0.018569      8.000000
  0.068087  0.005509  0.018569      8.000000
  0.080467  0.005385  0.018569      8.000000
  0.092846  0.005262  0.018569      8.000000
  0.105226  0.005138  0.018569      8.000000
  0.117605  0.005014  0.018569      8.000000
 -0.117605  0.007366  0.018569      8.000000
 -0.105226  0.007242  0.018569      8.000000
 -0.092846  0.007119  0.018569      8.000000
 -0.080467  0.006995  0.018569      8.000000
 -0.068087  0.006871  0.018569      8.000000
 -0.055708  0.006747  0.018569      8.000000
 -0.043328  0.006623  0.018569      8.000000
 -0.030949  0.006500  0.018569      8.000000
 -0.018569  0.006376  0.018569      8.000000
 -0.006190  0.006252  0.018569      4.000000
  0.018569  0.018385  0.018569      4.000000
  0.030949  0.018261  0.018569      8.000000
  0.043328  0.018137  0.018569      8.000000
  0.055708  0.018013  0.018569      8.000000
  0.068087  0.017889  0.018569      8.000000
  0.080467  0.017765  0.018569      8.000000
  0.092846  0.017642  0.018569      8.000000
  0.105226  0.017518  0.018569      8.000000
  0.117605  0.017394  0.018569      8.000000
 -0.117605  0.019746  0.018569      8.000000
 -0.105226  0.019623  0.018569      8.000000
 -0.092846  0.019499  0.018569      8.000000
 -0.080467  0.019375  0.018569      8.000000
 -0.068087  0.019251  0.018569      8.000000
 -0.055708  0.019127  0.018569      8.000000
 -0.043328  0.019004  0.018569      8.000000
 -0.030949  0.018880  0.018569      8.000000
 -0.018569  0.018756  0.018569      4.000000
  0.030949  0.030641  0.018569      4.000000
  0.043328  0.030517  0.018569      8.000000
  0.055708  0.030393  0.018569      8.000000
  0.068087  0.030269  0.018569      8.000000
  0.080467  0.030146  0.018569      8.000000
  0.092846  0.030022  0.018569      8.000000
  0.105226  0.029898  0.018569      8.000000
  0.117605  0.029774  0.018569      8.000000
 -0.117605  0.032126  0.018569      8.000000
 -0.105226  0.032003  0.018569      8.000000
 -0.092846  0.031879  0.018569      8.000000
 -0.080467  0.031755  0.018569      8.000000
 -0.068087  0.031631  0.018569      8.000000
 -0.055708  0.031507  0.018569      8.000000
 -0.043328  0.031384  0.018569      8.000000
 -0.030949  0.031260  0.018569      4.000000
  0.043328  0.042897  0.018569      4.000000
  0.055708  0.042773  0.018569      8.000000
  0.068087  0.042650  0.018569      8.000000
  0.080467  0.042526  0.018569      8.000000
  0.092846  0.042402  0.018569      8.000000
  0.105226  0.042278  0.018569      8.000000
  0.117605  0.042154  0.018569      8.000000
 -0.117605  0.044507  0.018569      8.000000
 -0.105226  0.044383  0.018569      8.000000
 -0.092846  0.044259  0.018569      8.000000
 -0.080467  0.044135  0.018569      8.000000
 -0.068087  0.044011  0.018569      8.000000
 -0.055708  0.043888  0.018569      8.000000
 -0.043328  0.043764  0.018569      4.000000
  0.055708  0.055154  0.018569      4.000000
  0.068087  0.055030  0.018569      8.000000
  0.080467  0.054906  0.018569      8.000000
  0.092846  0.054782  0.018569      8.000000
  0.105226  0.054658  0.018569      8.000000
  0.117605  0.054535  0.018569      8.000000
 -0.117605  0.056887  0.018569      8.000000
 -0.105226  0.056763  0.018569      8.000000
 -0.092846  0.056639  0.018569      8.000000
 -0.080467  0.056515  0.018569      8.000000
 -0.068087  0.056392  0.018569      8.000000
 -0.055708  0.056268  0.018569      4.000000
  0.068087  0.067410  0.018569      4.000000
  0.080467  0.067286  0.018569      8.000000
  0.092846  0.067162  0.018569      8.000000
  0.105226  0.067038  0.018569      8.000000
  0.117605  0.066915  0.018569      8.000000
 -0.117605  0.069267  0.018569      8.000000
 -0.105226  0.069143  0.018569      8.000000
 -0.092846  0.069019  0.018569      8.000000
 -0.080467  0.068895  0.018569      8.000000
 -0.068087  0.068772  0.018569      4.000000
  0.080467  0.079666  0.018569      4.000000
  0.092846  0.079542  0.018569      8.000000
  0.105226  0.079419  0.018569      8.000000
  0.117605  0.079295  0.018569      8.000000
 -0.117605  0.081647  0.018569      8.000000
 -0.105226  0.081523  0.018569      8.000000
 -0.092846  0.081399  0.018569      8.000000
 -0.080467  0.081276  0.018569      4.000000
  0.092846  0.091923  0.018569      4.000000
  0.105226  0.091799  0.018569      8.000000
  0.117605  0.091675  0.018569      8.000000
 -0.117605  0.094027  0.018569      8.000000
 -0.105226  0.093903  0.018569      8.000000
 -0.092846  0.093780  0.018569      4.000000
  0.105226  0.104179  0.018569      4.000000
  0.117605  0.104055  0.018569      8.000000
 -0.117605  0.106407  0.018569      8.000000
 -0.105226  0.106283  0.018569      4.000000
  0.117605  0.116435  0.018569      4.000000
 -0.117605  0.118787  0.018569      4.000000
  0.006190  0.006128  0.030949      4.000000
  0.018569  0.006004  0.030949      8.000000
  0.030949  0.005881  0.030949      8.000000
  0.043328  0.005757  0.030949      8.000000
  0.055708  0.005633  0.030949      8.000000
  0.068087  0.005509  0.030949      8.000000
  0.080467  0.005385  0.030949      8.000000
  0.092846  0.005262  0.030949      8.000000
  0.105226  0.005138  0.030949      8.000000
  0.117605  0.005014  0.030949      8.000000
 -0.117605  0.007366  0.030949      8.000000
 -0.105226  0.007242  0.030949      8.000000
 -0.092846  0.007119  0.030949      8.000000
 -0.080467  0.006995  0.030949      8.000000
 -0.068087  0.006871  0.030949      8.000000
 -0.055708  0.006747  0.030949      8.000000
 -0.043328  0.006623  0.030949      8.000000
 -0.030949  0.006500  0.030949      8.000000
 -0.018569  0.006376  0.030949      8.000000
 -0.006190  0.006252  0.030949      4.000000
  0.018569  0.018385  0.030949      4.000000
  0.030949  0.018261  0.030949      8.000000
  0.043328  0.018137  0.030949      8.000000
  0.055708  0.018013  0.030949      8.000000
  0.068087  0.017889  0.030949      8.000000
  0.080467  0.017765  0.030949      8.000000
  0.092846  0.017642  0.030949      8.000000
  0.105226  0.017518  0.030949      8.000000
  0.117605  0.017394  0.030949      8.000000
 -0.117605  0.019746  0.030949      8.000000
 -0.105226  0.019623  0.030949      8.000000
 -0.092846  0.019499  0.030949      8.000000
 -0.080467  0.019375  0.030949      8.000000
 -0.068087  0.019251  0.030949      8.000000
 -0.055708  0.019127  0.030949      8.000000
 -0.043328  0.019004  0.030949      8.000000
 -0.030949  0.018880  0.030949      8.000000
 -0.018569  0.018756  0.030949      4.000000
  0.030949  0.030641  0.030949      4.000000
  0.043328  0.030517  0.030949      8.000000
  0.055708  0.030393  0.030949      8.000000
  0.068087  0.030269  0.030949      8.000000
  0.080467  0.030146  0.030949      8.000000
  0.092846  0.030022  0.030949      8.000000
  0.105226  0.029898  0.030949      8.000000
  0.117605  0.029774  0.030949      8.000000
 -0.117605  0.032126  0.030949      8.000000
 -0.105226  0.032003  0.030949      8.000000
 -0.092846  0.031879  0.030949      8.000000
 -0.080467  0.031755  0.030949      8.000000
 -0.068087  0.031631  0.030949      8.000000
 -0.055708  0.031507  0.030949      8.000000
 -0.043328  0.031384  0.030949      8.000000
 -0.030949  0.031260  0.030949      4.000000
  0.043328  0.042897  0.030949      4.000000
  0.055708  0.042773  0.030949      8.000000
  0.068087  0.042650  0.030949      8.000000
  0.080467  0.042526  0.030949      8.000000
  0.092846  0.042402  0.030949      8.000000
  0.105226  0.042278  0.030949      8.000000
  0.117605  0.042154  0.030949      8.000000
 -0.117605  0.044507  0.030949      8.000000
 -0.105226  0.044383  0.030949      8.000000
 -0.092846  0.044259  0.030949      8.000000
 -0.080467  0.044135  0.030949      8.000000
 -0.068087  0.044011  0.030949      8.000000
 -0.055708  0.043888  0.030949      8.000000
 -0.043328  0.043764  0.030949      4.000000
  0.055708  0.055154  0.030949      4.000000
  0.068087  0.055030  0.030949      8.000000
  0.080467  0.054906  0.030949      8.000000
  0.092846  0.054782  0.030949      8.000000
  0.105226  0.054658  0.030949      8.000000
  0.117605  0.054535  0.030949      8.000000
 -0.117605  0.056887  0.030949      8.000000
 -0.105226  0.056763  0.030949      8.000000
 -0.092846  0.056639  0.030949      8.000000
 -0.080467  0.056515  0.030949      8.000000
 -0.068087  0.056392  0.030949      8.000000
 -0.055708  0.056268  0.030949      4.000000
  0.068087  0.067410  0.030949      4.000000
  0.080467  0.067286  0.030949      8.000000
  0.092846  0.067162  0.030949      8.000000
  0.105226  0.067038  0.030949      8.000000
  0.117605  0.066915  0.030949      8.000000
 -0.117605  0.069267  0.030949      8.000000
 -0.105226  0.069143  0.030949      8.000000
 -0.092846  0.069019  0.030949      8.000000
 -0.080467  0.068895  0.030949      8.000000
 -0.068087  0.068772  0.030949      4.000000
  0.080467  0.079666  0.030949      4.000000
  0.092846  0.079542  0.030949      8.000000
  0.105226  0.079419  0.030949      8.000000
  0.117605  0.079295  0.030949      8.000000
 -0.117605  0.081647  0.030949      8.000000
 -0.105226  0.081523  0.030949      8.000000
 -0.092846  0.081399  0.030949      8.000000
 -0.080467  0.081276  0.030949      4.000000
  0.092846  0.091923  0.030949      4.000000
  0.105226  0.091799  0.030949      8.000000
  0.117605  0.091675  0.030949      8.000000
 -0.117605  0.094027  0.030949      8.000000
 -0.105226  0.093903  0.030949      8.000000
 -0.092846  0.093780  0.030949      4.000000
  0.105226  0.104179  0.030949      4.000000
  0.117605  0.104055  0.030949      8.000000
 -0.117605  0.106407  0.030949      8.000000
 -0.105226  0.106283  0.030949      4.000000
  0.117605  0.116435  0.030949      4.000000
 -0.117605  0.118787  0.030949      4.000000
  0.006190  0.006128  0.043328      4.000000
  0.018569  0.006004  0.043328      8.000000
  0.030949  0.005881  0.043328      8.000000
  0.043328  0.005757  0.043328      8.000000
  0.055708  0.005633  0.043328      8.000000
  0.068087  0.005509  0.043328      8.000000
  0.080467  0.005385  0.043328      8.000000
  0.092846  0.005262  0.043328      8.000000
  0.105226  0.005138  0.043328      8.000000
  0.117605  0.005014  0.043328      8.000000
 -0.117605  0.007366  0.043328      8.000000
 -0.105226  0.007242  0.043328      8.000000
 -0.092846  0.007119  0.043328      8.000000
 -0.080467  0.006995  0.043328      8.000000
 -0.068087  0.006871  0.043328      8.000000
 -0.055708  0.006747  0.043328      8.000000
 -0.043328  0.006623  0.043328      8.000000
 -0.030949  0.006500  0.043328      8.000000
 -0.018569  0.006376  0.043328      8.000000
 -0.006190  0.006252  0.043328      4.000000
  0.018569  0.018385  0.043328      4.000000
  0.030949  0.018261  0.043328      8.000000
  0.043328  0.018137  0.043328      8.000000
  0.055708  0.018013  0.043328      8.000000
  0.068087  0.017889  0.043328      8.000000
  0.080467  0.017765  0.043328      8.000000
  0.092846  0.017642  0.043328      8.000000
  0.105226  0.017518  0.043328      8.000000
  0.117605  0.017394  0.043328      8.000000
 -0.117605  0.019746  0.043328      8.000000
 -0.105226  0.019623  0.043328      8.000000
 -0.092846  0.019499  0.043328      8.000000
 -0.080467  0.019375  0.043328      8.000000
 -0.068087  0.019251  0.043328      8.000000
 -0.055708  0.019127  0.043328      8.000000
 -0.043328  0.019004  0.043328      8.000000
 -0.030949  0.018880  0.043328      8.000000
 -0.018569  0.018756  0.043328      4.000000
  0.030949  0.030641  0.043328      4.000000
  0.043328  0.030517  0.043328      8.000000
  0.055708  0.030393  0.043328      8.000000
  0.068087  0.030269  0.043328      8.000000
  0.080467  0.030146  0.043328      8.000000
  0.092846  0.030022  0.043328      8.000000
  0.105226  0.029898  0.043328      8.000000
  0.117605  0.029774  0.043328      8.000000
 -0.117605  0.032126  0.043328      8.000000
 -0.105226  0.032003  0.043328      8.000000
 -0.092846  0.031879  0.043328      8.000000
 -0.080467  0.031755  0.043328      8.000000
 -0.068087  0.031631  0.043328      8.000000
 -0.055708  0.031507  0.043328      8.000000
 -0.043328  0.031384  0.043328      8.000000
 -0.030949  0.031260  0.043328      4.000000
  0.043328  0.042897  0.043328      4.000000
  0.055708  0.042773  0.043328      8.000000
  0.068087  0.042650  0.043328      8.000000
  0.080467  0.042526  0.043328      8.000000
  0.092846  0.042402  0.043328      8.000000
  0.105226  0.042278  0.043328      8.000000
  0.117605  0.042154  0.043328      8.000000
 -0.117605  0.044507  0.043328      8.000000
 -0.105226  0.044383  0.043328      8.000000
 -0.092846  0.044259  0.043328      8.000000
 -0.080467  0.044135  0.043328      8.000000
 -0.068087  0.044011  0.043328      8.000000
 -0.055708  0.043888  0.043328      8.000000
 -0.043328  0.043764  0.043328      4.000000
[...]

 k-point  1079 :      -0.3250    0.2750    0.4750
  band No.  band energies     occupation 
      1       0.5332      2.00000
      2       0.9746      2.00000
      3       3.5417      2.00000
      4       3.9577      2.00000
      5       4.4308      2.00000
      6       4.8445      2.00000
      7       7.5250      2.00190
      8       7.9491      1.64995
      9      13.9437      0.00000
     10      14.2936      0.00000
     11      14.8384      0.00000
     12      15.1711      0.00000
     13      16.3073      0.00000
     14      16.7003      0.00000

 k-point  1080 :      -0.2750    0.2750    0.4750
  band No.  band energies     occupation 
      1       0.2652      2.00000
      2       0.7073      2.00000
      3       4.1245      2.00000
      4       4.1245      2.00000
      5       4.6095      2.00000
      6       4.6095      2.00000
      7       8.1196      0.34216
      8       8.5426     -0.00189
      9      13.6304      0.00000
     10      13.6304      0.00000
     11      14.2033      0.00000
     12      14.2033      0.00000
     13      16.3835      0.00000
     14      16.7726      0.00000

 k-point  1081 :       0.3250    0.3250    0.4750
  band No.  band energies     occupation 
      1       0.7641      2.00000
      2       1.2048      2.00000
      3       3.8410      2.00000
      4       3.8410      2.00000
      5       4.3563      2.00000
      6       4.3563      2.00000
      7       6.7729      2.00000
      8       7.1985      2.00000
      9      14.7871      0.00000
     10      14.7871      0.00000
     11      15.3417      0.00000
     12      15.3417      0.00000
     13      17.1762      0.00000
     14      17.2994      0.00000

 k-point  1082 :       0.3750    0.3250    0.4750
  band No.  band energies     occupation 
      1       1.0701      2.00000
      2       1.5099      2.00000
      3       3.3032      2.00000
      4       3.7122      2.00000
      5       4.2307      2.00000
      6       4.6374      2.00000
      7       6.2259      2.00000
      8       6.6526      2.00000
      9      15.1147      0.00000
     10      15.4539      0.00000
     11      15.9987      0.00000
     12      16.3038      0.00000
     13      17.1043      0.00000
     14      17.5119      0.00000

 k-point  1083 :       0.4250    0.3250    0.4750
  band No.  band energies     occupation 
      1       1.4194      2.00000
      2       1.8581      2.00000
      3       2.7848      2.00000
      4       3.2148      2.00000
      5       4.5568      2.00000
      6       4.9823      2.00000
      7       5.7191      2.00000
      8       6.1469      2.00000
      9      15.4323      0.00000
     10      15.8030      0.00000
     11      16.7605      0.00000
     12      17.0070      0.00000
     13      17.1416      0.00000
     14      17.2513      0.00000

 k-point  1084 :       0.4750    0.3250    0.4750
  band No.  band energies     occupation 
      1       1.8116      2.00000
      2       2.2489      2.00000
      3       2.3044      2.00000
      4       2.7388      2.00000
      5       4.9450      2.00000
      6       5.2537      2.00000
      7       5.3727      2.00000
      8       5.6822      2.00000
      9      15.7740      0.00000
     10      16.1496      0.00000
     11      16.3678      0.00000
     12      16.7435      0.00000
     13      17.9412      0.00000
     14      17.9906      0.00000

 k-point  1085 :      -0.4750    0.3250    0.4750
  band No.  band energies     occupation 
      1       1.8649      2.00000
      2       2.2461      2.00000
      3       2.3015      2.00000
      4       2.6816      2.00000
      5       4.8304      2.00000
      6       5.2593      2.00000
      7       5.3784      2.00000
      8       5.8062      2.00000
      9      15.9828      0.00000
     10      16.1381      0.00000
     11      16.3563      0.00000
     12      16.5161      0.00000
     13      17.9956      0.00000
     14      18.0666      0.00000

 k-point  1086 :      -0.4250    0.3250    0.4750
  band No.  band energies     occupation 
      1       1.4675      2.00000
      2       1.9057      2.00000
      3       2.7221      2.00000
      4       3.1545      2.00000
      5       4.4510      2.00000
      6       4.8789      2.00000
      7       5.8543      2.00000
      8       6.2815      2.00000
      9      15.6219      0.00000
     10      15.9925      0.00000
     11      16.5080      0.00000
     12      16.8897      0.00000
     13      17.1377      0.00000
     14      17.3615      0.00000

 k-point  1087 :      -0.3750    0.3250    0.4750
  band No.  band energies     occupation 
      1       1.1128      2.00000
      2       1.5522      2.00000
      3       3.2378      2.00000
      4       3.6566      2.00000
      5       4.1262      2.00000
      6       4.5428      2.00000
      7       6.3714      2.00000
      8       6.7978      2.00000
      9      15.2879      0.00000
     10      15.6379      0.00000
     11      16.1159      0.00000
     12      16.4274      0.00000
     13      16.8249      0.00000
     14      17.2124      0.00000

 k-point  1088 :      -0.3250    0.3250    0.4750
  band No.  band energies     occupation 
      1       0.8012      2.00000
      2       1.2417      2.00000
      3       3.7815      2.00000
      4       3.7815      2.00000
      5       4.2618      2.00000
      6       4.2618      2.00000
      7       6.9288      2.00000
      8       7.3541      2.00002
      9      14.9564      0.00000
     10      14.9564      0.00000
     11      15.4505      0.00000
     12      15.4505      0.00000
     13      16.8612      0.00000
     14      17.2982      0.00000

 k-point  1089 :       0.3750    0.3750    0.4750
  band No.  band energies     occupation 
      1       1.3750      2.00000
      2       1.8138      2.00000
      3       3.5890      2.00000
      4       3.5890      2.00000
      5       4.0984      2.00000
      6       4.0984      2.00000
      7       5.6768      2.00000
      8       6.1047      2.00000
      9      16.1382      0.00000
     10      16.1382      0.00000
     11      16.5940      0.00000
     12      16.5940      0.00000
     13      17.7186      0.00000
     14      17.8038      0.00000

 k-point  1090 :       0.4250    0.3750    0.4750
  band No.  band energies     occupation 
      1       1.7231      2.00000
      2       2.1607      2.00000
      3       3.0902      2.00000
      4       3.5016      2.00000
      5       4.0158      2.00000
      6       4.4250      2.00000
      7       5.1683      2.00000
      8       5.5971      2.00000
      9      16.4745      0.00000
     10      16.8020      0.00000
     11      17.2754      0.00000
     12      17.5138      0.00000
     13      17.6908      0.00000
     14      18.0687      0.00000

 k-point  1091 :       0.4750    0.3750    0.4750
  band No.  band energies     occupation 
      1       2.1139      2.00000
      2       2.5499      2.00000
      3       2.6131      2.00000
      4       3.0440      2.00000
      5       4.3870      2.00000
      6       4.7014      2.00000
      7       4.8134      2.00000
      8       5.1308      2.00000
      9      16.8040      0.00000
     10      17.1517      0.00000
     11      17.3742      0.00000
     12      17.7259      0.00000
     13      18.2135      0.00000
     14      18.2532      0.00000

 k-point  1092 :      -0.4750    0.3750    0.4750
  band No.  band energies     occupation 
      1       2.1750      2.00000
      2       2.5468      2.00000
      3       2.6099      2.00000
      4       2.9800      2.00000
      5       4.2778      2.00000
      6       4.7066      2.00000
      7       4.8187      2.00000
      8       5.2469      2.00000
      9      17.0183      0.00000
     10      17.1368      0.00000
     11      17.3589      0.00000
     12      17.4951      0.00000
     13      18.2733      0.00000
     14      18.3325      0.00000

 k-point  1093 :      -0.4250    0.3750    0.4750
  band No.  band energies     occupation 
      1       1.7783      2.00000
      2       2.2152      2.00000
      3       3.0199      2.00000
      4       3.4410      2.00000
      5       3.9074      2.00000
      6       4.3262      2.00000
      7       5.2948      2.00000
      8       5.7229      2.00000
      9      16.6703      0.00000
     10      17.0005      0.00000
     11      17.4176      0.00000
     12      17.4189      0.00000
     13      17.6403      0.00000
     14      17.7967      0.00000

 k-point  1094 :      -0.3750    0.3750    0.4750
  band No.  band energies     occupation 
      1       1.4240      2.00000
      2       1.8624      2.00000
      3       3.5234      2.00000
      4       3.5234      2.00000
      5       3.9994      2.00000
      6       3.9994      2.00000
      7       5.8129      2.00000
      8       6.2403      2.00000
      9      16.3300      0.00000
     10      16.3300      0.00000
     11      16.7228      0.00000
     12      16.7228      0.00000
     13      17.4143      0.00000
     14      17.8331      0.00000

 k-point  1095 :       0.4250    0.4250    0.4750
  band No.  band energies     occupation 
      1       2.0699      2.00000
      2       2.5060      2.00000
      3       3.4206      2.00000
      4       3.4206      2.00000
      5       3.9258      2.00000
      6       3.9258      2.00000
      7       4.6583      2.00000
      8       5.0878      2.00000
      9      17.5020      0.00000
     10      17.5020      0.00000
     11      17.8195      0.00000
     12      17.8196      0.00000
     13      18.3403      0.00000
     14      18.3411      0.00000

 k-point  1096 :       0.4750    0.4250    0.4750
  band No.  band energies     occupation 
      1       2.4590      2.00000
      2       2.8926      2.00000
      3       2.9621      2.00000
      4       3.3750      2.00000
      5       3.8864      2.00000
      6       4.1910      2.00000
      7       4.2971      2.00000
      8       4.6202      2.00000
      9      17.8212      0.00000
     10      18.1056      0.00000
     11      18.3258      0.00000
     12      18.5137      0.00000
     13      18.5288      0.00000
     14      18.6150      0.00000

 k-point  1097 :      -0.4750    0.4250    0.4750
  band No.  band energies     occupation 
      1       2.5272      2.00000
      2       2.8890      2.00000
      3       2.9585      2.00000
      4       3.3113      2.00000
      5       3.7757      2.00000
      6       4.1958      2.00000
      7       4.3019      2.00000
      8       4.7288      2.00000
      9      18.0375      0.00000
     10      18.0789      0.00000
     11      18.2985      0.00000
     12      18.4153      0.00000
     13      18.5863      0.00000
     14      18.6599      0.00000

 k-point  1098 :      -0.4250    0.4250    0.4750
  band No.  band energies     occupation 
      1       2.1318      2.00000
      2       2.5669      2.00000
      3       3.3508      2.00000
      4       3.3508      2.00000
      5       3.8238      2.00000
      6       3.8238      2.00000
      7       4.7765      2.00000
      8       5.2049      2.00000
      9      17.7090      0.00000
     10      17.7093      0.00000
     11      17.9555      0.00000
     12      17.9558      0.00000
     13      18.0487      0.00000
     14      18.3913      0.00000

 k-point  1099 :       0.4750    0.4750    0.4750
  band No.  band energies     occupation 
      1       2.8453      2.00000
      2       3.2681      2.00000
      3       3.3363      2.00000
      4       3.3363      2.00000
      5       3.7317      2.00000
      6       3.8392      2.00000
      7       3.8392      2.00000
      8       4.1522      2.00000
      9      18.7723      0.00000
     10      18.7756      0.00000
     11      18.8646      0.00000
     12      18.8655      0.00000
     13      18.8732      0.00000
     14      19.0525      0.00000

 k-point  1100 :      -0.4750    0.4750    0.4750
  band No.  band energies     occupation 
      1       2.9193      2.00000
      2       3.2644      2.00000
      3       3.2644      2.00000
      4       3.3328      2.00000
      5       3.7358      2.00000
      6       3.7358      2.00000
      7       3.8432      2.00000
      8       4.2544      2.00000
      9      18.7733      0.00000
     10      18.9110      0.00000
     11      18.9242      0.00000
     12      18.9460      0.00000
     13      19.0039      0.00000
     14      19.0713      0.00000


--------------------------------------------------------------------------------------------------------


 soft charge-density along one line, spin component           1
         0         1         2         3         4         5         6         7         8         9
 total charge-density along one line

 pseudopotential strength for first ion, spin component:           1
  8.443  14.390   0.000   0.000   0.000   0.000   0.000  -0.000
 14.390  24.525   0.000   0.000   0.000   0.000   0.000  -0.000
  0.000   0.000   1.988   0.000   0.000   5.731   0.000   0.000
  0.000   0.000   0.000   1.988   0.000   0.000   5.731   0.000
  0.000   0.000   0.000   0.000   1.988   0.000   0.000   5.731
  0.000   0.000   5.731   0.000   0.000  16.436   0.000   0.000
  0.000   0.000   0.000   5.731   0.000   0.000  16.436   0.000
 -0.000  -0.000   0.000   0.000   5.731   0.000   0.000  16.436
 total augmentation occupancy for first ion, spin component:           1
  3.351  -0.824  -0.000  -0.000   0.000   0.000   0.000  -0.000
 -0.824   0.271   0.000   0.000  -0.000  -0.000   0.000  -0.000
 -0.000   0.000   1.113   0.000  -0.009  -0.073  -0.000   0.001
  0.000   0.000   0.000   1.113   0.000  -0.000  -0.073  -0.000
  0.000  -0.000  -0.009   0.000   1.113   0.001  -0.000  -0.073
  0.000  -0.000  -0.073  -0.000   0.001   0.005   0.000  -0.000
  0.000   0.000  -0.000  -0.073  -0.000   0.000   0.005   0.000
 -0.000  -0.000   0.001  -0.000  -0.073  -0.000   0.000   0.005


------------------------ aborting loop because EDIFF is reached ----------------------------------------


    CHARGE:  cpu time      1.7472: real time      0.8774
    FORLOC:  cpu time      0.0005: real time      0.0005
    FORNL :  cpu time     11.7969: real time      5.9399
    STRESS:  cpu time     35.3120: real time     17.7958
    FORCOR:  cpu time      0.0335: real time      0.0175
    FORHAR:  cpu time      0.0090: real time      0.0050
    MIXING:  cpu time      0.0050: real time      0.0010
    OFIELD:  cpu time      0.0000: real time      0.0000

  FORCE on cell =-STRESS in cart. coord.  units (eV):
  Direction    XX          YY          ZZ          XY          YZ          ZX
  --------------------------------------------------------------------------------------
  Alpha Z    -0.81570    -0.81570    -0.81570
  Ewald     -98.07959   -98.06741   -98.08608    -0.60866     0.00000     0.00000
  Hartree     0.14000     0.14001     0.14030    -0.00047    -0.00000    -0.00000
  E(xc)     -34.28012   -34.28048   -34.27976     0.01786     0.00000     0.00000
  Local       1.41783     1.40547     1.42376     0.61784     0.00000     0.00000
  n-local    74.71571    76.56860    75.63694    -0.19869     0.84713    -0.03036
  augment    -4.12475    -4.12495    -4.12438     0.00987     0.00000    -0.00000
  Kinetic    57.91078    62.32120    60.10101     0.01609    -6.25415    -0.03672
  Fock        0.00000     0.00000     0.00000     0.00000     0.00000     0.00000
  -------------------------------------------------------------------------------------
  Total       0.01368     0.01723    -0.00393    -0.17747     0.00000     0.00000
  in kB       0.33274     0.41906    -0.09559    -4.31572     0.00000     0.00000
  external pressure =        0.22 kB  Pullay stress =        0.00 kB


 VOLUME and BASIS-vectors are now :
 -----------------------------------------------------------------------------
  energy-cutoff  :      400.00
  volume of cell :       65.88
      direct lattice vectors                 reciprocal lattice vectors
     4.038929693  0.000000000  0.000000000     0.247590346 -0.002476027 -0.000000000
     0.040389297  4.038727742  0.000000000     0.000000000  0.247602726 -0.000000000
     0.000000000  0.000000000  4.038929693     0.000000000  0.000000000  0.247590346

  length of vectors
     4.038929693  4.038929693  4.038929693     0.247602726  0.247602726  0.247590346


 FORCES acting on ions
    electron-ion (+dipol)            ewald-force                    non-local-force                 convergence-correction
 -----------------------------------------------------------------------------------------------
   -.420E-15 -.202E-14 -.659E-15   0.141E-14 0.685E-15 -.940E-15   -.222E-25 -.260E-24 0.115E-26   -.486E-16 -.414E-16 -.171E-15
   -.105E-14 -.522E-14 -.443E-14   0.160E-14 -.736E-15 0.346E-15   0.566E-25 -.210E-24 -.670E-26   -.495E-16 0.591E-16 0.181E-15
   -.601E-14 -.134E-14 -.413E-13   -.150E-14 0.849E-15 0.357E-15   0.995E-25 -.366E-25 -.465E-26   0.974E-16 -.343E-16 0.205E-15
   -.496E-14 -.113E-13 0.170E-13   -.130E-14 -.573E-15 0.300E-15   0.396E-25 0.111E-24 -.669E-26   0.966E-16 0.523E-16 -.172E-15
 -----------------------------------------------------------------------------------------------
   -.124E-13 -.199E-13 -.293E-13   0.212E-15 0.225E-15 0.634E-16   0.173E-24 -.396E-24 -.169E-25   0.959E-16 0.357E-16 0.429E-16


 POSITION                                       TOTAL-FORCE (eV/Angst)
 -----------------------------------------------------------------------------------
      0.00000      0.00000      0.00000        -0.000000     -0.000000     -0.000000
      0.02019      2.01936      2.01946        -0.000000     -0.000000     -0.000000
      2.01946      0.00000      2.01946         0.000000      0.000000      0.000000
      2.03966      2.01936      0.00000        -0.000000     -0.000000      0.000000
 -----------------------------------------------------------------------------------
    total drift:                               -0.000000     -0.000000     -0.000000


--------------------------------------------------------------------------------------------------------



  FREE ENERGIE OF THE ION-ELECTRON SYSTEM (eV)
  ---------------------------------------------------
  free  energy   TOTEN  =       -14.98627684 eV

  energy  without entropy=      -14.98844250  energy(sigma->0) =      -14.98699873



--------------------------------------------------------------------------------------------------------


    POTLOK:  cpu time      0.0414: real time      0.0214


--------------------------------------------------------------------------------------------------------




--------------------------------------------------------------------------------------------------------


  
 reached required accuracy - stopping structural energy minimisation
     LOOP+:  cpu time    684.7555: real time    352.4811
    4ORBIT:  cpu time      0.0000: real time      0.0000

 total amount of memory used by VASP MPI-rank0    55507. kBytes
=======================================================================

   base      :      30000. kBytes
   nonlr-proj:       1281. kBytes
   fftplans  :        531. kBytes
   grid      :       1507. kBytes
   one-center:         12. kBytes
   wavefun   :      22176. kBytes

  
  
 General timing and accounting informations for this job:
 ========================================================
  
                  Total CPU time used (sec):      693.422
                            User time (sec):      685.770
                          System time (sec):        7.653
                         Elapsed time (sec):      358.804
  
                   Maximum memory used (kb):      117360.
                   Average memory used (kb):          N/A
  
                          Minor page faults:        96623
                          Major page faults:           25
                 Voluntary context switches:         3318
