<?xml version="1.0" encoding="ISO-8859-1"?>
<modeling>
 <generator>
  <i name="program" type="string">vasp </i>
  <i name="version" type="string">6.4.2  </i>
  <i name="subversion" type="string">20Jul23 (build Apr 22 2024 22:35:45) complex                          parallel </i>
  <i name="platform" type="string">LinuxGNU </i>
  <i name="date" type="string">2024 05 26 </i>
  <i name="time" type="string">16:49:39 </i>
 </generator>
 <incar>
  <i type="string" name="SYSTEM">Al fcc relaxation</i>
  <i type="string" name="PREC">Accurate</i>
  <i type="string" name="ALGO">Fast</i>
  <i type="int" name="NELM">    60</i>
  <i type="int" name="NELMIN">     4</i>
  <i type="int" name="IBRION">     2</i>
  <i name="EDIFF">      0.00000100</i>
  <i type="int" name="NSW">   100</i>
  <i type="int" name="ISIF">     2</i>
  <i name="ENCUT">    400.00000000</i>
  <i type="string" name="LREAL">Auto</i>
  <i type="int" name="ISMEAR">     1</i>
  <i name="SIGMA">      0.20000000</i>
  <i name="KSPACING">      0.08000000</i>
  <i type="logical" name="LWAVE"> F  </i>
  <i type="logical" name="LCHARG"> F  </i>
 </incar>
 <primitive_cell>
  <structure name="primitive_cell" >
   <crystal>
    <varray name="basis" >
     <v>       2.01946485       0.00000000      -2.01946485 </v>
     <v>      -2.01946485       0.00000000      -2.01946485 </v>
     <v>       0.02019465       2.01936387       2.01946485 </v>
    </varray>
    <i name="volume">     16.47089402 </i>
    <varray name="rec_basis" >
     <v>       0.24759035       0.24512670      -0.24759035 </v>
     <v>      -0.24759035       0.25007875      -0.24759035 </v>
     <v>       0.00000000       0.49520545       0.00000000 </v>
    </varray>
   </crystal>
   <varray name="positions" >
    <v>       0.00000000       0.00000000       0.00000000 </v>
   </varray>
  </structure>
  <varray name="primitive_index" >
   <v type="int" >        1 </v>
  </varray>
 </primitive_cell>
 <kpoints>
  <generation param="Monkhorst-Pack">
   <v type="int" name="divisions">      20       20       20 </v>
   <v name="usershift">      0.00000000       0.00000000       0.00000000 </v>
   <v name="genvec1">      0.05000000      -0.00000000      -0.00000000 </v>
   <v name="genvec2">      0.00000000       0.05000000       0.00000000 </v>
   <v name="genvec3">      0.00000000       0.00000000       0.05000000 </v>
   <v name="shift">      0.50000000       0.50000000       0.50000000 </v>
  </generation>
  <varray name="kpointlist" >
   <v>       0.02500000       0.02500000       0.02500000 </v>
   <v>       0.07500000       0.02500000       0.02500000 </v>
   <v>       0.12500000       0.02500000       0.02500000 </v>
   <v>       0.17500000       0.02500000       0.02500000 </v>
   <v>       0.22500000       0.02500000       0.02500000 </v>
   <v>       0.27500000       0.02500000       0.02500000 </v>
   <v>       0.32500000       0.02500000       0.02500000 </v>
   <v>       0.37500000       0.02500000       0.02500000 </v>
   <v>       0.42500000       0.02500000       0.02500000 </v>
   <v>       0.47500000       0.02500000       0.02500000 </v>
   <v>      -0.47500000       0.02500000       0.02500000 </v>
   <v>      -0.42500000       0.02500000       0.02500000 </v>
   <v>      -0.37500000       0.02500000       0.02500000 </v>
   <v>      -0.32500000       0.02500000       0.02500000 </v>
   <v>      -0.27500000       0.02500000       0.02500000 </v>
   <v>      -0.22500000       0.02500000       0.02500000 </v>
   <v>      -0.17500000       0.02500000       0.02500000 </v>
   <v>      -0.12500000       0.02500000       0.02500000 </v>
   <v>      -0.07500000       0.02500000       0.02500000 </v>
   <v>      -0.02500000       0.02500000       0.02500000 </v>
   <v>       0.07500000       0.07500000       0.02500000 </v>
   <v>       0.12500000       0.07500000       0.02500000 </v>
   <v>       0.17500000       0.07500000       0.02500000 </v>
   <v>       0.22500000       0.07500000       0.02500000 </v>
   <v>       0.27500000       0.07500000       0.02500000 </v>
   <v>       0.32500000       0.07500000       0.02500000 </v>
   <v>       0.37500000       0.07500000       0.02500000 </v>
   <v>       0.42500000       0.07500000       0.02500000 </v>
   <v>       0.47500000       0.07500000       0.02500000 </v>
   <v>      -0.47500000       0.07500000       0.02500000 </v>
   <v>      -0.42500000       0.07500000       0.02500000 </v>
   <v>      -0.37500000       0.07500000       0.02500000 </v>
   <v>      -0.32500000       0.07500000       0.02500000 </v>
   <v>      -0.27500000       0.07500000       0.02500000 </v>
   <v>      -0.22500000       0.07500000       0.02500000 </v>
   <v>      -0.17500000       0.07500000       0.02500000 </v>
   <v>      -0.12500000       0.07500000       0.02500000 </v>
   <v>      -0.07500000       0.07500000       0.02500000 </v>
   <v>       0.12500000       0.12500000       0.02500000 </v>
   <v>       0.17500000       0.12500000       0.02500000 </v>
   <v>       0.22500000       0.12500000       0.02500000 </v>
   <v>       0.27500000       0.12500000       0.02500000 </v>
   <v>       0.32500000       0.12500000       0.02500000 </v>
   <v>       0.37500000       0.12500000       0.02500000 </v>
   <v>       0.42500000       0.12500000       0.02500000 </v>
   <v>       0.47500000       0.12500000       0.02500000 </v>
   <v>      -0.47500000       0.12500000       0.02500000 </v>
   <v>      -0.42500000       0.12500000       0.02500000 </v>
   <v>      -0.37500000       0.12500000       0.02500000 </v>
   <v>      -0.32500000       0.12500000       0.02500000 </v>
   <v>      -0.27500000       0.12500000       0.02500000 </v>
   <v>      -0.22500000       0.12500000       0.02500000 </v>
   <v>      -0.17500000       0.12500000       0.02500000 </v>
   <v>      -0.12500000       0.12500000       0.02500000 </v>
   <v>       0.17500000       0.17500000       0.02500000 </v>
   <v>       0.22500000       0.17500000       0.02500000 </v>
   <v>       0.27500000       0.17500000       0.02500000 </v>
   <v>       0.32500000       0.17500000       0.02500000 </v>
   <v>       0.37500000       0.17500000       0.02500000 </v>
   <v>       0.42500000       0.17500000       0.02500000 </v>
   <v>       0.47500000       0.17500000       0.02500000 </v>
   <v>      -0.47500000       0.17500000       0.02500000 </v>
   <v>      -0.42500000       0.17500000       0.02500000 </v>
   <v>      -0.37500000       0.17500000       0.02500000 </v>
   <v>      -0.32500000       0.17500000       0.02500000 </v>
   <v>      -0.27500000       0.17500000       0.02500000 </v>
   <v>      -0.22500000       0.17500000       0.02500000 </v>
   <v>      -0.17500000       0.17500000       0.02500000 </v>
   <v>       0.22500000       0.22500000       0.02500000 </v>
   <v>       0.27500000       0.22500000       0.02500000 </v>
   <v>       0.32500000       0.22500000       0.02500000 </v>
   <v>       0.37500000       0.22500000       0.02500000 </v>
   <v>       0.42500000       0.22500000       0.02500000 </v>
   <v>       0.47500000       0.22500000       0.02500000 </v>
   <v>      -0.47500000       0.22500000       0.02500000 </v>
   <v>      -0.42500000       0.22500000       0.02500000 </v>
   <v>      -0.37500000       0.22500000       0.02500000 </v>
   <v>      -0.32500000       0.22500000       0.02500000 </v>
   <v>      -0.27500000       0.22500000       0.02500000 </v>
   <v>      -0.22500000       0.22500000       0.02500000 </v>
   <v>       0.27500000       0.27500000       0.02500000 </v>
   <v>       0.32500000       0.27500000       0.02500000 </v>
   <v>       0.37500000       0.27500000       0.02500000 </v>
   <v>       0.42500000       0.27500000       0.02500000 </v>
   <v>       0.47500000       0.27500000       0.02500000 </v>
   <v>      -0.47500000       0.27500000       0.02500000 </v>
   <v>      -0.42500000       0.27500000       0.02500000 </v>
   <v>      -0.37500000       0.27500000       0.02500000 </v>
   <v>      -0.32500000       0.27500000       0.02500000 </v>
   <v>      -0.27500000       0.27500000       0.02500000 </v>
   <v>       0.32500000       0.32500000       0.02500000 </v>
   <v>       0.37500000       0.32500000       0.02500000 </v>
   <v>       0.42500000       0.32500000       0.02500000 </v>
   <v>       0.47500000       0.32500000       0.02500000 </v>
   <v>      -0.47500000       0.32500000       0.02500000 </v>
   <v>      -0.42500000       0.32500000       0.02500000 </v>
   <v>      -0.37500000       0.32500000       0.02500000 </v>
   <v>      -0.32500000       0.32500000       0.02500000 </v>
   <v>       0.37500000       0.37500000       0.02500000 </v>
   <v>       0.42500000       0.37500000       0.02500000 </v>
   <v>       0.47500000       0.37500000       0.02500000 </v>
   <v>      -0.47500000       0.37500000       0.02500000 </v>
   <v>      -0.42500000       0.37500000       0.02500000 </v>
   <v>      -0.37500000       0.37500000       0.02500000 </v>
   <v>       0.42500000       0.42500000       0.02500000 </v>
   <v>       0.47500000       0.42500000       0.02500000 </v>
   <v>      -0.47500000       0.42500000       0.02500000 </v>
   <v>      -0.42500000       0.42500000       0.02500000 </v>
   <v>       0.47500000       0.47500000       0.02500000 </v>
   <v>      -0.47500000       0.47500000       0.02500000 </v>
   <v>       0.02500000       0.02500000       0.07500000 </v>
   <v>       0.07500000       0.02500000       0.07500000 </v>
   <v>       0.12500000       0.02500000       0.07500000 </v>
   <v>       0.17500000       0.02500000       0.07500000 </v>
   <v>       0.22500000       0.02500000       0.07500000 </v>
   <v>       0.27500000       0.02500000       0.07500000 </v>
   <v>       0.32500000       0.02500000       0.07500000 </v>
   <v>       0.37500000       0.02500000       0.07500000 </v>
   <v>       0.42500000       0.02500000       0.07500000 </v>
   <v>       0.47500000       0.02500000       0.07500000 </v>
   <v>      -0.47500000       0.02500000       0.07500000 </v>
   <v>      -0.42500000       0.02500000       0.07500000 </v>
   <v>      -0.37500000       0.02500000       0.07500000 </v>
   <v>      -0.32500000       0.02500000       0.07500000 </v>
   <v>      -0.27500000       0.02500000       0.07500000 </v>
   <v>      -0.22500000       0.02500000       0.07500000 </v>
   <v>      -0.17500000       0.02500000       0.07500000 </v>
   <v>      -0.12500000       0.02500000       0.07500000 </v>
   <v>      -0.07500000       0.02500000       0.07500000 </v>
   <v>      -0.02500000       0.02500000       0.07500000 </v>
   <v>       0.07500000       0.07500000       0.07500000 </v>
   <v>       0.12500000       0.07500000       0.07500000 </v>
   <v>       0.17500000       0.07500000       0.07500000 </v>
   <v>       0.22500000       0.07500000       0.07500000 </v>
   <v>       0.27500000       0.07500000       0.07500000 </v>
   <v>       0.32500000       0.07500000       0.07500000 </v>
   <v>       0.37500000       0.07500000       0.07500000 </v>
   <v>       0.42500000       0.07500000       0.07500000 </v>
   <v>       0.47500000       0.07500000       0.07500000 </v>
   <v>      -0.47500000       0.07500000       0.07500000 </v>
   <v>      -0.42500000       0.07500000       0.07500000 </v>
   <v>      -0.37500000       0.07500000       0.07500000 </v>
   <v>      -0.32500000       0.07500000       0.07500000 </v>
   <v>      -0.27500000       0.07500000       0.07500000 </v>
   <v>      -0.22500000       0.07500000       0.07500000 </v>
   <v>      -0.17500000       0.07500000       0.07500000 </v>
   <v>      -0.12500000       0.07500000       0.07500000 </v>
   <v>      -0.07500000       0.07500000       0.07500000 </v>
   <v>       0.12500000       0.12500000       0.07500000 </v>
   <v>       0.17500000       0.12500000       0.07500000 </v>
   <v>       0.22500000       0.12500000       0.07500000 </v>
   <v>       0.27500000       0.12500000       0.07500000 </v>
   <v>       0.32500000       0.12500000       0.07500000 </v>
   <v>       0.37500000       0.12500000       0.07500000 </v>
   <v>       0.42500000       0.12500000       0.07500000 </v>
   <v>       0.47500000       0.12500000       0.07500000 </v>
   <v>      -0.47500000       0.12500000       0.07500000 </v>
   <v>      -0.42500000       0.12500000       0.07500000 </v>
   <v>      -0.37500000       0.12500000       0.07500000 </v>
   <v>      -0.32500000       0.12500000       0.07500000 </v>
   <v>      -0.27500000       0.12500000       0.07500000 </v>
   <v>      -0.22500000       0.12500000       0.07500000 </v>
   <v>      -0.17500000       0.12500000       0.07500000 </v>
   <v>      -0.12500000       0.12500000       0.07500000 </v>
   <v>       0.17500000       0.17500000       0.07500000 </v>
   <v>       0.22500000       0.17500000       0.07500000 </v>
   <v>       0.27500000       0.17500000       0.07500000 </v>
   <v>       0.32500000       0.17500000       0.07500000 </v>
   <v>       0.37500000       0.17500000       0.07500000 </v>
   <v>       0.42500000       0.17500000       0.07500000 </v>
   <v>       0.47500000       0.17500000       0.07500000 </v>
   <v>      -0.47500000       0.17500000       0.07500000 </v>
   <v>      -0.42500000       0.17500000       0.07500000 </v>
   <v>      -0.37500000       0.17500000       0.07500000 </v>
   <v>      -0.32500000       0.17500000       0.07500000 </v>
   <v>      -0.27500000       0.17500000       0.07500000 </v>
   <v>      -0.22500000       0.17500000       0.07500000 </v>
   <v>      -0.17500000       0.17500000       0.07500000 </v>
   <v>       0.22500000       0.22500000       0.07500000 </v>
   <v>       0.27500000       0.22500000       0.07500000 </v>
   <v>       0.32500000       0.22500000       0.07500000 </v>
   <v>       0.37500000       0.22500000       0.07500000 </v>
   <v>       0.42500000       0.22500000       0.07500000 </v>
   <v>       0.47500000       0.22500000       0.07500000 </v>
   <v>      -0.47500000       0.22500000       0.07500000 </v>
   <v>      -0.42500000       0.22500000       0.07500000 </v>
   <v>      -0.37500000       0.22500000       0.07500000 </v>
   <v>      -0.32500000       0.22500000       0.07500000 </v>
   <v>      -0.27500000       0.22500000       0.07500000 </v>
   <v>      -0.22500000       0.22500000       0.07500000 </v>
   <v>       0.27500000       0.27500000       0.07500000 </v>
   <v>       0.32500000       0.27500000       0.07500000 </v>
   <v>       0.37500000       0.27500000       0.07500000 </v>
   <v>       0.42500000       0.27500000       0.07500000 </v>
   <v>       0.47500000       0.27500000       0.07500000 </v>
   <v>      -0.47500000       0.27500000       0.07500000 </v>
   <v>      -0.42500000       0.27500000       0.07500000 </v>
   <v>      -0.37500000       0.27500000       0.07500000 </v>
   <v>      -0.32500000       0.27500000       0.07500000 </v>
   <v>      -0.27500000       0.27500000       0.07500000 </v>
   <v>       0.32500000       0.32500000       0.07500000 </v>
   <v>       0.37500000       0.32500000       0.07500000 </v>
   <v>       0.42500000       0.32500000       0.07500000 </v>
   <v>       0.47500000       0.32500000       0.07500000 </v>
   <v>      -0.47500000       0.32500000       0.07500000 </v>
   <v>      -0.42500000       0.32500000       0.07500000 </v>
   <v>      -0.37500000       0.32500000       0.07500000 </v>
   <v>      -0.32500000       0.32500000       0.07500000 </v>
   <v>       0.37500000       0.37500000       0.07500000 </v>
   <v>       0.42500000       0.37500000       0.07500000 </v>
   <v>       0.47500000       0.37500000       0.07500000 </v>
   <v>      -0.47500000       0.37500000       0.07500000 </v>
   <v>      -0.42500000       0.37500000       0.07500000 </v>
   <v>      -0.37500000       0.37500000       0.07500000 </v>
   <v>       0.42500000       0.42500000       0.07500000 </v>
   <v>       0.47500000       0.42500000       0.07500000 </v>
   <v>      -0.47500000       0.42500000       0.07500000 </v>
   <v>      -0.42500000       0.42500000       0.07500000 </v>
   <v>       0.47500000       0.47500000       0.07500000 </v>
   <v>      -0.47500000       0.47500000       0.07500000 </v>
   <v>       0.02500000       0.02500000       0.12500000 </v>
   <v>       0.07500000       0.02500000       0.12500000 </v>
   <v>       0.12500000       0.02500000       0.12500000 </v>
   <v>       0.17500000       0.02500000       0.12500000 </v>
   <v>       0.22500000       0.02500000       0.12500000 </v>
   <v>       0.27500000       0.02500000       0.12500000 </v>
   <v>       0.32500000       0.02500000       0.12500000 </v>
   <v>       0.37500000       0.02500000       0.12500000 </v>
   <v>       0.42500000       0.02500000       0.12500000 </v>
   <v>       0.47500000       0.02500000       0.12500000 </v>
   <v>      -0.47500000       0.02500000       0.12500000 </v>
   <v>      -0.42500000       0.02500000       0.12500000 </v>
   <v>      -0.37500000       0.02500000       0.12500000 </v>
   <v>      -0.32500000       0.02500000       0.12500000 </v>
   <v>      -0.27500000       0.02500000       0.12500000 </v>
   <v>      -0.22500000       0.02500000       0.12500000 </v>
   <v>      -0.17500000       0.02500000       0.12500000 </v>
   <v>      -0.12500000       0.02500000       0.12500000 </v>
   <v>      -0.07500000       0.02500000       0.12500000 </v>
   <v>      -0.02500000       0.02500000       0.12500000 </v>
   <v>       0.07500000       0.07500000       0.12500000 </v>
   <v>       0.12500000       0.07500000       0.12500000 </v>
   <v>       0.17500000       0.07500000       0.12500000 </v>
   <v>       0.22500000       0.07500000       0.12500000 </v>
   <v>       0.27500000       0.07500000       0.12500000 </v>
   <v>       0.32500000       0.07500000       0.12500000 </v>
   <v>       0.37500000       0.07500000       0.12500000 </v>
   <v>       0.42500000       0.07500000       0.12500000 </v>
   <v>       0.47500000       0.07500000       0.12500000 </v>
   <v>      -0.47500000       0.07500000       0.12500000 </v>
   <v>      -0.42500000       0.07500000       0.12500000 </v>
   <v>      -0.37500000       0.07500000       0.12500000 </v>
   <v>      -0.32500000       0.07500000       0.12500000 </v>
   <v>      -0.27500000       0.07500000       0.12500000 </v>
   <v>      -0.22500000       0.07500000       0.12500000 </v>
   <v>      -0.17500000       0.07500000       0.12500000 </v>
   <v>      -0.12500000       0.07500000       0.12500000 </v>
   <v>      -0.07500000       0.07500000       0.12500000 </v>
   <v>       0.12500000       0.12500000       0.12500000 </v>
   <v>       0.17500000       0.12500000       0.12500000 </v>
   <v>       0.22500000       0.12500000       0.12500000 </v>
   <v>       0.27500000       0.12500000       0.12500000 </v>
   <v>       0.32500000       0.12500000       0.12500000 </v>
   <v>       0.37500000       0.12500000       0.12500000 </v>
   <v>       0.42500000       0.12500000       0.12500000 </v>
   <v>       0.47500000       0.12500000       0.12500000 </v>
   <v>      -0.47500000       0.12500000       0.12500000 </v>
   <v>      -0.42500000       0.12500000       0.12500000 </v>
   <v>      -0.37500000       0.12500000       0.12500000 </v>
   <v>      -0.32500000       0.12500000       0.12500000 </v>
   <v>      -0.27500000       0.12500000       0.12500000 </v>
   <v>      -0.22500000       0.12500000       0.12500000 </v>
   <v>      -0.17500000       0.12500000       0.12500000 </v>
   <v>      -0.12500000       0.12500000       0.12500000 </v>
   <v>       0.17500000       0.17500000       0.12500000 </v>
   <v>       0.22500000       0.17500000       0.12500000 </v>
   <v>       0.27500000       0.17500000       0.12500000 </v>
   <v>       0.32500000       0.17500000       0.12500000 </v>
   <v>       0.37500000       0.17500000       0.12500000 </v>
   <v>       0.42500000       0.17500000       0.12500000 </v>
   <v>       0.47500000       0.17500000       0.12500000 </v>
   <v>      -0.47500000       0.17500000       0.12500000 </v>
   <v>      -0.42500000       0.17500000       0.12500000 </v>
   <v>      -0.37500000       0.17500000       0.12500000 </v>
   <v>      -0.32500000       0.17500000       0.12500000 </v>
   <v>      -0.27500000       0.17500000       0.12500000 </v>
   <v>      -0.22500000       0.17500000       0.12500000 </v>
   <v>      -0.17500000       0.17500000       0.12500000 </v>
   <v>       0.22500000       0.22500000       0.12500000 </v>
   <v>       0.27500000       0.22500000       0.12500000 </v>
   <v>       0.32500000       0.22500000       0.12500000 </v>
   <v>       0.37500000       0.22500000       0.12500000 </v>
   <v>       0.42500000       0.22500000       0.12500000 </v>
   <v>       0.47500000       0.22500000       0.12500000 </v>
   <v>      -0.47500000       0.22500000       0.12500000 </v>
   <v>      -0.42500000       0.22500000       0.12500000 </v>
   <v>      -0.37500000       0.22500000       0.12500000 </v>
   <v>      -0.32500000       0.22500000       0.12500000 </v>
   <v>      -0.27500000       0.22500000       0.12500000 </v>
   <v>      -0.22500000       0.22500000       0.12500000 </v>
   <v>       0.27500000       0.27500000       0.12500000 </v>
   <v>       0.32500000       0.27500000       0.12500000 </v>
   <v>       0.37500000       0.27500000       0.12500000 </v>
   <v>       0.42500000       0.27500000       0.12500000 </v>
   <v>       0.47500000       0.27500000       0.12500000 </v>
   <v>      -0.47500000       0.27500000       0.12500000 </v>
   <v>      -0.42500000       0.27500000       0.12500000 </v>
   <v>      -0.37500000       0.27500000       0.12500000 </v>
   <v>      -0.32500000       0.27500000       0.12500000 </v>
   <v>      -0.27500000       0.27500000       0.12500000 </v>
   <v>       0.32500000       0.32500000       0.12500000 </v>
   <v>       0.37500000       0.32500000       0.12500000 </v>
   <v>       0.42500000       0.32500000       0.12500000 </v>
   <v>       0.47500000       0.32500000       0.12500000 </v>
   <v>      -0.47500000       0.32500000       0.12500000 </v>
   <v>      -0.42500000       0.32500000       0.12500000 </v>
   <v>      -0.37500000       0.32500000       0.12500000 </v>
   <v>      -0.32500000       0.32500000       0.12500000 </v>
   <v>       0.37500000       0.37500000       0.12500000 </v>
   <v>       0.42500000       0.37500000       0.12500000 </v>
   <v>       0.47500000       0.37500000       0.12500000 </v>
   <v>      -0.47500000       0.37500000       0.12500000 </v>
   <v>      -0.42500000       0.37500000       0.12500000 </v>
   <v>      -0.37500000       0.37500000       0.12500000 </v>
   <v>       0.42500000       0.42500000       0.12500000 </v>
   <v>       0.47500000       0.42500000       0.12500000 </v>
   <v>      -0.47500000       0.42500000       0.12500000 </v>
   <v>      -0.42500000       0.42500000       0.12500000 </v>
   <v>       0.47500000       0.47500000       0.12500000 </v>
   <v>      -0.47500000       0.47500000       0.12500000 </v>
   <v>       0.02500000       0.02500000       0.17500000 </v>
   <v>       0.07500000       0.02500000       0.17500000 </v>
   <v>       0.12500000       0.02500000       0.17500000 </v>
   <v>       0.17500000       0.02500000       0.17500000 </v>
   <v>       0.22500000       0.02500000       0.17500000 </v>
   <v>       0.27500000       0.02500000       0.17500000 </v>
   <v>       0.32500000       0.02500000       0.17500000 </v>
   <v>       0.37500000       0.02500000       0.17500000 </v>
   <v>       0.42500000       0.02500000       0.17500000 </v>
   <v>       0.47500000       0.02500000       0.17500000 </v>
   <v>      -0.47500000       0.02500000       0.17500000 </v>
   <v>      -0.42500000       0.02500000       0.17500000 </v>
   <v>      -0.37500000       0.02500000       0.17500000 </v>
   <v>      -0.32500000       0.02500000       0.17500000 </v>
   <v>      -0.27500000       0.02500000       0.17500000 </v>
   <v>      -0.22500000       0.02500000       0.17500000 </v>
   <v>      -0.17500000       0.02500000       0.17500000 </v>
   <v>      -0.12500000       0.02500000       0.17500000 </v>
   <v>      -0.07500000       0.02500000       0.17500000 </v>
   <v>      -0.02500000       0.02500000       0.17500000 </v>
   <v>       0.07500000       0.07500000       0.17500000 </v>
   <v>       0.12500000       0.07500000       0.17500000 </v>
   <v>       0.17500000       0.07500000       0.17500000 </v>
   <v>       0.22500000       0.07500000       0.17500000 </v>
   <v>       0.27500000       0.07500000       0.17500000 </v>
   <v>       0.32500000       0.07500000       0.17500000 </v>
   <v>       0.37500000       0.07500000       0.17500000 </v>
   <v>       0.42500000       0.07500000       0.17500000 </v>
   <v>       0.47500000       0.07500000       0.17500000 </v>
   <v>      -0.47500000       0.07500000       0.17500000 </v>
   <v>      -0.42500000       0.07500000       0.17500000 </v>
   <v>      -0.37500000       0.07500000       0.17500000 </v>
   <v>      -0.32500000       0.07500000       0.17500000 </v>
   <v>      -0.27500000       0.07500000       0.17500000 </v>
   <v>      -0.22500000       0.07500000       0.17500000 </v>
   <v>      -0.17500000       0.07500000       0.17500000 </v>
   <v>      -0.12500000       0.07500000       0.17500000 </v>
   <v>      -0.07500000       0.07500000       0.17500000 </v>
   <v>       0.12500000       0.12500000       0.17500000 </v>
   <v>       0.17500000       0.12500000       0.17500000 </v>
   <v>       0.22500000       0.12500000       0.17500000 </v>
   <v>       0.27500000       0.12500000       0.17500000 </v>
   <v>       0.32500000       0.12500000       0.17500000 </v>
   <v>       0.37500000       0.12500000       0.17500000 </v>
   <v>       0.42500000       0.12500000       0.17500000 </v>
   <v>       0.47500000       0.12500000       0.17500000 </v>
   <v>      -0.47500000       0.12500000       0.17500000 </v>
   <v>      -0.42500000       0.12500000       0.17500000 </v>
   <v>      -0.37500000       0.12500000       0.17500000 </v>
   <v>      -0.32500000       0.12500000       0.17500000 </v>
   <v>      -0.27500000       0.12500000       0.17500000 </v>
   <v>      -0.22500000       0.12500000       0.17500000 </v>
   <v>      -0.17500000       0.12500000       0.17500000 </v>
   <v>      -0.12500000       0.12500000       0.17500000 </v>
   <v>       0.17500000       0.17500000       0.17500000 </v>
   <v>       0.22500000       0.17500000       0.17500000 </v>
   <v>       0.27500000       0.17500000       0.17500000 </v>
   <v>       0.32500000       0.17500000       0.17500000 </v>
   <v>       0.37500000       0.17500000       0.17500000 </v>
   <v>       0.42500000       0.17500000       0.17500000 </v>
   <v>       0.47500000       0.17500000       0.17500000 </v>
   <v>      -0.47500000       0.17500000       0.17500000 </v>
   <v>      -0.42500000       0.17500000       0.17500000 </v>
   <v>      -0.37500000       0.17500000       0.17500000 </v>
   <v>      -0.32500000       0.17500000       0.17500000 </v>
   <v>      -0.27500000       0.17500000       0.17500000 </v>
   <v>      -0.22500000       0.17500000       0.17500000 </v>
   <v>      -0.17500000       0.17500000       0.17500000 </v>
   <v>       0.22500000       0.22500000       0.17500000 </v>
   <v>       0.27500000       0.22500000       0.17500000 </v>
   <v>       0.32500000       0.22500000       0.17500000 </v>
   <v>       0.37500000       0.22500000       0.17500000 </v>
   <v>       0.42500000       0.22500000       0.17500000 </v>
   <v>       0.47500000       0.22500000       0.17500000 </v>
   <v>      -0.47500000       0.22500000       0.17500000 </v>
   <v>      -0.42500000       0.22500000       0.17500000 </v>
   <v>      -0.37500000       0.22500000       0.17500000 </v>
   <v>      -0.32500000       0.22500000       0.17500000 </v>
   <v>      -0.27500000       0.22500000       0.17500000 </v>
   <v>      -0.22500000       0.22500000       0.17500000 </v>
   <v>       0.27500000       0.27500000       0.17500000 </v>
   <v>       0.32500000       0.27500000       0.17500000 </v>
   <v>       0.37500000       0.27500000       0.17500000 </v>
   <v>       0.42500000       0.27500000       0.17500000 </v>
   <v>       0.47500000       0.27500000       0.17500000 </v>
   <v>      -0.47500000       0.27500000       0.17500000 </v>
   <v>      -0.42500000       0.27500000       0.17500000 </v>
   <v>      -0.37500000       0.27500000       0.17500000 </v>
   <v>      -0.32500000       0.27500000       0.17500000 </v>
   <v>      -0.27500000       0.27500000       0.17500000 </v>
   <v>       0.32500000       0.32500000       0.17500000 </v>
   <v>       0.37500000       0.32500000       0.17500000 </v>
   <v>       0.42500000       0.32500000       0.17500000 </v>
   <v>       0.47500000       0.32500000       0.17500000 </v>
   <v>      -0.47500000       0.32500000       0.17500000 </v>
   <v>      -0.42500000       0.32500000       0.17500000 </v>
   <v>      -0.37500000       0.32500000       0.17500000 </v>
   <v>      -0.32500000       0.32500000       0.17500000 </v>
   <v>       0.37500000       0.37500000       0.17500000 </v>
   <v>       0.42500000       0.37500000       0.17500000 </v>
   <v>       0.47500000       0.37500000       0.17500000 </v>
   <v>      -0.47500000       0.37500000       0.17500000 </v>
   <v>      -0.42500000       0.37500000       0.17500000 </v>
   <v>      -0.37500000       0.37500000       0.17500000 </v>
   <v>       0.42500000       0.42500000       0.17500000 </v>
   <v>       0.47500000       0.42500000       0.17500000 </v>
   <v>      -0.47500000       0.42500000       0.17500000 </v>
   <v>      -0.42500000       0.42500000       0.17500000 </v>
   <v>       0.47500000       0.47500000       0.17500000 </v>
   <v>      -0.47500000       0.47500000       0.17500000 </v>
   <v>       0.02500000       0.02500000       0.22500000 </v>
   <v>       0.07500000       0.02500000       0.22500000 </v>
   <v>       0.12500000       0.02500000       0.22500000 </v>
   <v>       0.17500000       0.02500000       0.22500000 </v>
   <v>       0.22500000       0.02500000       0.22500000 </v>
   <v>       0.27500000       0.02500000       0.22500000 </v>
   <v>       0.32500000       0.02500000       0.22500000 </v>
   <v>       0.37500000       0.02500000       0.22500000 </v>
   <v>       0.42500000       0.02500000       0.22500000 </v>
   <v>       0.47500000       0.02500000       0.22500000 </v>
   <v>      -0.47500000       0.02500000       0.22500000 </v>
   <v>      -0.42500000       0.02500000       0.22500000 </v>
   <v>      -0.37500000       0.02500000       0.22500000 </v>
   <v>      -0.32500000       0.02500000       0.22500000 </v>
   <v>      -0.27500000       0.02500000       0.22500000 </v>
   <v>      -0.22500000       0.02500000       0.22500000 </v>
   <v>      -0.17500000       0.02500000       0.22500000 </v>
   <v>      -0.12500000       0.02500000       0.22500000 </v>
   <v>      -0.07500000       0.02500000       0.22500000 </v>
   <v>      -0.02500000       0.02500000       0.22500000 </v>
   <v>       0.07500000       0.07500000       0.22500000 </v>
   <v>       0.12500000       0.07500000       0.22500000 </v>
   <v>       0.17500000       0.07500000       0.22500000 </v>
   <v>       0.22500000       0.07500000       0.22500000 </v>
   <v>       0.27500000       0.07500000       0.22500000 </v>
   <v>       0.32500000       0.07500000       0.22500000 </v>
   <v>       0.37500000       0.07500000       0.22500000 </v>
   <v>       0.42500000       0.07500000       0.22500000 </v>
   <v>       0.47500000       0.07500000       0.22500000 </v>
   <v>      -0.47500000       0.07500000       0.22500000 </v>
   <v>      -0.42500000       0.07500000       0.22500000 </v>
   <v>      -0.37500000       0.07500000       0.22500000 </v>
   <v>      -0.32500000       0.07500000       0.22500000 </v>
   <v>      -0.27500000       0.07500000       0.22500000 </v>
   <v>      -0.22500000       0.07500000       0.22500000 </v>
   <v>      -0.17500000       0.07500000       0.22500000 </v>
   <v>      -0.12500000       0.07500000       0.22500000 </v>
   <v>      -0.07500000       0.07500000       0.22500000 </v>
   <v>       0.12500000       0.12500000       0.22500000 </v>
   <v>       0.17500000       0.12500000       0.22500000 </v>
   <v>       0.22500000       0.12500000       0.22500000 </v>
   <v>       0.27500000       0.12500000       0.22500000 </v>
   <v>       0.32500000       0.12500000       0.22500000 </v>
   <v>       0.37500000       0.12500000       0.22500000 </v>
   <v>       0.42500000       0.12500000       0.22500000 </v>
   <v>       0.47500000       0.12500000       0.22500000 </v>
   <v>      -0.47500000       0.12500000       0.22500000 </v>
   <v>      -0.42500000       0.12500000       0.22500000 </v>
   <v>      -0.37500000       0.12500000       0.22500000 </v>
   <v>      -0.32500000       0.12500000       0.22500000 </v>
   <v>      -0.27500000       0.12500000       0.22500000 </v>
   <v>      -0.22500000       0.12500000       0.22500000 </v>
   <v>      -0.17500000       0.12500000       0.22500000 </v>
   <v>      -0.12500000       0.12500000       0.22500000 </v>
   <v>       0.17500000       0.17500000       0.22500000 </v>
   <v>       0.22500000       0.17500000       0.22500000 </v>
   <v>       0.27500000       0.17500000       0.22500000 </v>
   <v>       0.32500000       0.17500000       0.22500000 </v>
   <v>       0.37500000       0.17500000       0.22500000 </v>
   <v>       0.42500000       0.17500000       0.22500000 </v>
   <v>       0.47500000       0.17500000       0.22500000 </v>
   <v>      -0.47500000       0.17500000       0.22500000 </v>
   <v>      -0.42500000       0.17500000       0.22500000 </v>
   <v>      -0.37500000       0.17500000       0.22500000 </v>
   <v>      -0.32500000       0.17500000       0.22500000 </v>
   <v>      -0.27500000       0.17500000       0.22500000 </v>
   <v>      -0.22500000       0.17500000       0.22500000 </v>
   <v>      -0.17500000       0.17500000       0.22500000 </v>
   <v>       0.22500000       0.22500000       0.22500000 </v>
   <v>       0.27500000       0.22500000       0.22500000 </v>
   <v>       0.32500000       0.22500000       0.22500000 </v>
   <v>       0.37500000       0.22500000       0.22500000 </v>
   <v>       0.42500000       0.22500000       0.22500000 </v>
   <v>       0.47500000       0.22500000       0.22500000 </v>
   <v>      -0.47500000       0.22500000       0.22500000 </v>
   <v>      -0.42500000       0.22500000       0.22500000 </v>
   <v>      -0.37500000       0.22500000       0.22500000 </v>
   <v>      -0.32500000       0.22500000       0.22500000 </v>
   <v>      -0.27500000       0.22500000       0.22500000 </v>
   <v>      -0.22500000       0.22500000       0.22500000 </v>
   <v>       0.27500000       0.27500000       0.22500000 </v>
   <v>       0.32500000       0.27500000       0.22500000 </v>
   <v>       0.37500000       0.27500000       0.22500000 </v>
   <v>       0.42500000       0.27500000       0.22500000 </v>
   <v>       0.47500000       0.27500000       0.22500000 </v>
   <v>      -0.47500000       0.27500000       0.22500000 </v>
   <v>      -0.42500000       0.27500000       0.22500000 </v>
   <v>      -0.37500000       0.27500000       0.22500000 </v>
   <v>      -0.32500000       0.27500000       0.22500000 </v>
   <v>      -0.27500000       0.27500000       0.22500000 </v>
   <v>       0.32500000       0.32500000       0.22500000 </v>
   <v>       0.37500000       0.32500000       0.22500000 </v>
   <v>       0.42500000       0.32500000       0.22500000 </v>
   <v>       0.47500000       0.32500000       0.22500000 </v>
   <v>      -0.47500000       0.32500000       0.22500000 </v>
   <v>      -0.42500000       0.32500000       0.22500000 </v>
   <v>      -0.37500000       0.32500000       0.22500000 </v>
   <v>      -0.32500000       0.32500000       0.22500000 </v>
   <v>       0.37500000       0.37500000       0.22500000 </v>
   <v>       0.42500000       0.37500000       0.22500000 </v>
   <v>       0.47500000       0.37500000       0.22500000 </v>
   <v>      -0.47500000       0.37500000       0.22500000 </v>
   <v>      -0.42500000       0.37500000       0.22500000 </v>
   <v>      -0.37500000       0.37500000       0.22500000 </v>
   <v>       0.42500000       0.42500000       0.22500000 </v>
   <v>       0.47500000       0.42500000       0.22500000 </v>
   <v>      -0.47500000       0.42500000       0.22500000 </v>
   <v>      -0.42500000       0.42500000       0.22500000 </v>
   <v>       0.47500000       0.47500000       0.22500000 </v>
   <v>      -0.47500000       0.47500000       0.22500000 </v>
   <v>       0.02500000       0.02500000       0.27500000 </v>
   <v>       0.07500000       0.02500000       0.27500000 </v>
   <v>       0.12500000       0.02500000       0.27500000 </v>
   <v>       0.17500000       0.02500000       0.27500000 </v>
   <v>       0.22500000       0.02500000       0.27500000 </v>
   <v>       0.27500000       0.02500000       0.27500000 </v>
   <v>       0.32500000       0.02500000       0.27500000 </v>
   <v>       0.37500000       0.02500000       0.27500000 </v>
   <v>       0.42500000       0.02500000       0.27500000 </v>
   <v>       0.47500000       0.02500000       0.27500000 </v>
   <v>      -0.47500000       0.02500000       0.27500000 </v>
   <v>      -0.42500000       0.02500000       0.27500000 </v>
   <v>      -0.37500000       0.02500000       0.27500000 </v>
   <v>      -0.32500000       0.02500000       0.27500000 </v>
   <v>      -0.27500000       0.02500000       0.27500000 </v>
   <v>      -0.22500000       0.02500000       0.27500000 </v>
   <v>      -0.17500000       0.02500000       0.27500000 </v>
   <v>      -0.12500000       0.02500000       0.27500000 </v>
   <v>      -0.07500000       0.02500000       0.27500000 </v>
   <v>      -0.02500000       0.02500000       0.27500000 </v>
   <v>       0.07500000       0.07500000       0.27500000 </v>
   <v>       0.12500000       0.07500000       0.27500000 </v>
   <v>       0.17500000       0.07500000       0.27500000 </v>
   <v>       0.22500000       0.07500000       0.27500000 </v>
   <v>       0.27500000       0.07500000       0.27500000 </v>
   <v>       0.32500000       0.07500000       0.27500000 </v>
   <v>       0.37500000       0.07500000       0.27500000 </v>
   <v>       0.42500000       0.07500000       0.27500000 </v>
   <v>       0.47500000       0.07500000       0.27500000 </v>
   <v>      -0.47500000       0.07500000       0.27500000 </v>
   <v>      -0.42500000       0.07500000       0.27500000 </v>
   <v>      -0.37500000       0.07500000       0.27500000 </v>
   <v>      -0.32500000       0.07500000       0.27500000 </v>
   <v>      -0.27500000       0.07500000       0.27500000 </v>
   <v>      -0.22500000       0.07500000       0.27500000 </v>
   <v>      -0.17500000       0.07500000       0.27500000 </v>
   <v>      -0.12500000       0.07500000       0.27500000 </v>
   <v>      -0.07500000       0.07500000       0.27500000 </v>
   <v>       0.12500000       0.12500000       0.27500000 </v>
   <v>       0.17500000       0.12500000       0.27500000 </v>
   <v>       0.22500000       0.12500000       0.27500000 </v>
   <v>       0.27500000       0.12500000       0.27500000 </v>
   <v>       0.32500000       0.12500000       0.27500000 </v>
   <v>       0.37500000       0.12500000       0.27500000 </v>
   <v>       0.42500000       0.12500000       0.27500000 </v>
   <v>       0.47500000       0.12500000       0.27500000 </v>
   <v>      -0.47500000       0.12500000       0.27500000 </v>
   <v>      -0.42500000       0.12500000       0.27500000 </v>
   <v>      -0.37500000       0.12500000       0.27500000 </v>
   <v>      -0.32500000       0.12500000       0.27500000 </v>
   <v>      -0.27500000       0.12500000       0.27500000 </v>
   <v>      -0.22500000       0.12500000       0.27500000 </v>
   <v>      -0.17500000       0.12500000       0.27500000 </v>
   <v>      -0.12500000       0.12500000       0.27500000 </v>
   <v>       0.17500000       0.17500000       0.27500000 </v>
   <v>       0.22500000       0.17500000       0.27500000 </v>
   <v>       0.27500000       0.17500000       0.27500000 </v>
   <v>       0.32500000       0.17500000       0.27500000 </v>
   <v>       0.37500000       0.17500000       0.27500000 </v>
   <v>       0.42500000       0.17500000       0.27500000 </v>
   <v>       0.47500000       0.17500000       0.27500000 </v>
   <v>      -0.47500000       0.17500000       0.27500000 </v>
   <v>      -0.42500000       0.17500000       0.27500000 </v>
   <v>      -0.37500000       0.17500000       0.27500000 </v>
   <v>      -0.32500000       0.17500000       0.27500000 </v>
   <v>      -0.27500000       0.17500000       0.27500000 </v>
   <v>      -0.22500000       0.17500000       0.27500000 </v>
   <v>      -0.17500000       0.17500000       0.27500000 </v>
   <v>       0.22500000       0.22500000       0.27500000 </v>
   <v>       0.27500000       0.22500000       0.27500000 </v>
   <v>       0.32500000       0.22500000       0.27500000 </v>
   <v>       0.37500000       0.22500000       0.27500000 </v>
   <v>       0.42500000       0.22500000       0.27500000 </v>
   <v>       0.47500000       0.22500000       0.27500000 </v>
   <v>      -0.47500000       0.22500000       0.27500000 </v>
   <v>      -0.42500000       0.22500000       0.27500000 </v>
   <v>      -0.37500000       0.22500000       0.27500000 </v>
   <v>      -0.32500000       0.22500000       0.27500000 </v>
   <v>      -0.27500000       0.22500000       0.27500000 </v>
   <v>      -0.22500000       0.22500000       0.27500000 </v>
   <v>       0.27500000       0.27500000       0.27500000 </v>
   <v>       0.32500000       0.27500000       0.27500000 </v>
   <v>       0.37500000       0.27500000       0.27500000 </v>
   <v>       0.42500000       0.27500000       0.27500000 </v>
   <v>       0.47500000       0.27500000       0.27500000 </v>
   <v>      -0.47500000       0.27500000       0.27500000 </v>
   <v>      -0.42500000       0.27500000       0.27500000 </v>
   <v>      -0.37500000       0.27500000       0.27500000 </v>
   <v>      -0.32500000       0.27500000       0.27500000 </v>
   <v>      -0.27500000       0.27500000       0.27500000 </v>
   <v>       0.32500000       0.32500000       0.27500000 </v>
   <v>       0.37500000       0.32500000       0.27500000 </v>
   <v>       0.42500000       0.32500000       0.27500000 </v>
   <v>       0.47500000       0.32500000       0.27500000 </v>
   <v>      -0.47500000       0.32500000       0.27500000 </v>
   <v>      -0.42500000       0.32500000       0.27500000 </v>
   <v>      -0.37500000       0.32500000       0.27500000 </v>
   <v>      -0.32500000       0.32500000       0.27500000 </v>
   <v>       0.37500000       0.37500000       0.27500000 </v>
   <v>       0.42500000       0.37500000       0.27500000 </v>
   <v>       0.47500000       0.37500000       0.27500000 </v>
   <v>      -0.47500000       0.37500000       0.27500000 </v>
   <v>      -0.42500000       0.37500000       0.27500000 </v>
   <v>      -0.37500000       0.37500000       0.27500000 </v>
   <v>       0.42500000       0.42500000       0.27500000 </v>
   <v>       0.47500000       0.42500000       0.27500000 </v>
   <v>      -0.47500000       0.42500000       0.27500000 </v>
   <v>      -0.42500000       0.42500000       0.27500000 </v>
   <v>       0.47500000       0.47500000       0.27500000 </v>
   <v>      -0.47500000       0.47500000       0.27500000 </v>
   <v>       0.02500000       0.02500000       0.32500000 </v>
   <v>       0.07500000       0.02500000       0.32500000 </v>
   <v>       0.12500000       0.02500000       0.32500000 </v>
   <v>       0.17500000       0.02500000       0.32500000 </v>
   <v>       0.22500000       0.02500000       0.32500000 </v>
   <v>       0.27500000       0.02500000       0.32500000 </v>
   <v>       0.32500000       0.02500000       0.32500000 </v>
   <v>       0.37500000       0.02500000       0.32500000 </v>
   <v>       0.42500000       0.02500000       0.32500000 </v>
   <v>       0.47500000       0.02500000       0.32500000 </v>
   <v>      -0.47500000       0.02500000       0.32500000 </v>
   <v>      -0.42500000       0.02500000       0.32500000 </v>
   <v>      -0.37500000       0.02500000       0.32500000 </v>
   <v>      -0.32500000       0.02500000       0.32500000 </v>
   <v>      -0.27500000       0.02500000       0.32500000 </v>
   <v>      -0.22500000       0.02500000       0.32500000 </v>
   <v>      -0.17500000       0.02500000       0.32500000 </v>
   <v>      -0.12500000       0.02500000       0.32500000 </v>
   <v>      -0.07500000       0.02500000       0.32500000 </v>
   <v>      -0.02500000       0.02500000       0.32500000 </v>
   <v>       0.07500000       0.07500000       0.32500000 </v>
   <v>       0.12500000       0.07500000       0.32500000 </v>
   <v>       0.17500000       0.07500000       0.32500000 </v>
   <v>       0.22500000       0.07500000       0.32500000 </v>
   <v>       0.27500000       0.07500000       0.32500000 </v>
   <v>       0.32500000       0.07500000       0.32500000 </v>
   <v>       0.37500000       0.07500000       0.32500000 </v>
   <v>       0.42500000       0.07500000       0.32500000 </v>
   <v>       0.47500000       0.07500000       0.32500000 </v>
   <v>      -0.47500000       0.07500000       0.32500000 </v>
   <v>      -0.42500000       0.07500000       0.32500000 </v>
   <v>      -0.37500000       0.07500000       0.32500000 </v>
   <v>      -0.32500000       0.07500000       0.32500000 </v>
   <v>      -0.27500000       0.07500000       0.32500000 </v>
   <v>      -0.22500000       0.07500000       0.32500000 </v>
   <v>      -0.17500000       0.07500000       0.32500000 </v>
   <v>      -0.12500000       0.07500000       0.32500000 </v>
   <v>      -0.07500000       0.07500000       0.32500000 </v>
   <v>       0.12500000       0.12500000       0.32500000 </v>
   <v>       0.17500000       0.12500000       0.32500000 </v>
   <v>       0.22500000       0.12500000       0.32500000 </v>
   <v>       0.27500000       0.12500000       0.32500000 </v>
   <v>       0.32500000       0.12500000       0.32500000 </v>
   <v>       0.37500000       0.12500000       0.32500000 </v>
   <v>       0.42500000       0.12500000       0.32500000 </v>
   <v>       0.47500000       0.12500000       0.32500000 </v>
   <v>      -0.47500000       0.12500000       0.32500000 </v>
   <v>      -0.42500000       0.12500000       0.32500000 </v>
   <v>      -0.37500000       0.12500000       0.32500000 </v>
   <v>      -0.32500000       0.12500000       0.32500000 </v>
   <v>      -0.27500000       0.12500000       0.32500000 </v>
   <v>      -0.22500000       0.12500000       0.32500000 </v>
   <v>      -0.17500000       0.12500000       0.32500000 </v>
   <v>      -0.12500000       0.12500000       0.32500000 </v>
   <v>       0.17500000       0.17500000       0.32500000 </v>
   <v>       0.22500000       0.17500000       0.32500000 </v>
   <v>       0.27500000       0.17500000       0.32500000 </v>
   <v>       0.32500000       0.17500000       0.32500000 </v>
   <v>       0.37500000       0.17500000       0.32500000 </v>
   <v>       0.42500000       0.17500000       0.32500000 </v>
   <v>       0.47500000       0.17500000       0.32500000 </v>
   <v>      -0.47500000       0.17500000       0.32500000 </v>
   <v>      -0.42500000       0.17500000       0.32500000 </v>
   <v>      -0.37500000       0.17500000       0.32500000 </v>
   <v>      -0.32500000       0.17500000       0.32500000 </v>
   <v>      -0.27500000       0.17500000       0.32500000 </v>
   <v>      -0.22500000       0.17500000       0.32500000 </v>
   <v>      -0.17500000       0.17500000       0.32500000 </v>
   <v>       0.22500000       0.22500000       0.32500000 </v>
   <v>       0.27500000       0.22500000       0.32500000 </v>
   <v>       0.32500000       0.22500000       0.32500000 </v>
   <v>       0.37500000       0.22500000       0.32500000 </v>
   <v>       0.42500000       0.22500000       0.32500000 </v>
   <v>       0.47500000       0.22500000       0.32500000 </v>
   <v>      -0.47500000       0.22500000       0.32500000 </v>
   <v>      -0.42500000       0.22500000       0.32500000 </v>
   <v>      -0.37500000       0.22500000       0.32500000 </v>
   <v>      -0.32500000       0.22500000       0.32500000 </v>
   <v>      -0.27500000       0.22500000       0.32500000 </v>
   <v>      -0.22500000       0.22500000       0.32500000 </v>
   <v>       0.27500000       0.27500000       0.32500000 </v>
   <v>       0.32500000       0.27500000       0.32500000 </v>
   <v>       0.37500000       0.27500000       0.32500000 </v>
   <v>       0.42500000       0.27500000       0.32500000 </v>
   <v>       0.47500000       0.27500000       0.32500000 </v>
   <v>      -0.47500000       0.27500000       0.32500000 </v>
   <v>      -0.42500000       0.27500000       0.32500000 </v>
   <v>      -0.37500000       0.27500000       0.32500000 </v>
   <v>      -0.32500000       0.27500000       0.32500000 </v>
   <v>      -0.27500000       0.27500000       0.32500000 </v>
   <v>       0.32500000       0.32500000       0.32500000 </v>
   <v>       0.37500000       0.32500000       0.32500000 </v>
   <v>       0.42500000       0.32500000       0.32500000 </v>
   <v>       0.47500000       0.32500000       0.32500000 </v>
   <v>      -0.47500000       0.32500000       0.32500000 </v>
   <v>      -0.42500000       0.32500000       0.32500000 </v>
   <v>      -0.37500000       0.32500000       0.32500000 </v>
   <v>      -0.32500000       0.32500000       0.32500000 </v>
   <v>       0.37500000       0.37500000       0.32500000 </v>
   <v>       0.42500000       0.37500000       0.32500000 </v>
   <v>       0.47500000       0.37500000       0.32500000 </v>
   <v>      -0.47500000       0.37500000       0.32500000 </v>
   <v>      -0.42500000       0.37500000       0.32500000 </v>
   <v>      -0.37500000       0.37500000       0.32500000 </v>
   <v>       0.42500000       0.42500000       0.32500000 </v>
   <v>       0.47500000       0.42500000       0.32500000 </v>
   <v>      -0.47500000       0.42500000       0.32500000 </v>
   <v>      -0.42500000       0.42500000       0.32500000 </v>
   <v>       0.47500000       0.47500000       0.32500000 </v>
   <v>      -0.47500000       0.47500000       0.32500000 </v>
   <v>       0.02500000       0.02500000       0.37500000 </v>
   <v>       0.07500000       0.02500000       0.37500000 </v>
   <v>       0.12500000       0.02500000       0.37500000 </v>
   <v>       0.17500000       0.02500000       0.37500000 </v>
   <v>       0.22500000       0.02500000       0.37500000 </v>
   <v>       0.27500000       0.02500000       0.37500000 </v>
   <v>       0.32500000       0.02500000       0.37500000 </v>
   <v>       0.37500000       0.02500000       0.37500000 </v>
   <v>       0.42500000       0.02500000       0.37500000 </v>
   <v>       0.47500000       0.02500000       0.37500000 </v>
   <v>      -0.47500000       0.02500000       0.37500000 </v>
   <v>      -0.42500000       0.02500000       0.37500000 </v>
   <v>      -0.37500000       0.02500000       0.37500000 </v>
   <v>      -0.32500000       0.02500000       0.37500000 </v>
   <v>      -0.27500000       0.02500000       0.37500000 </v>
   <v>      -0.22500000       0.02500000       0.37500000 </v>
   <v>      -0.17500000       0.02500000       0.37500000 </v>
   <v>      -0.12500000       0.02500000       0.37500000 </v>
   <v>      -0.07500000       0.02500000       0.37500000 </v>
   <v>      -0.02500000       0.02500000       0.37500000 </v>
   <v>       0.07500000       0.07500000       0.37500000 </v>
   <v>       0.12500000       0.07500000       0.37500000 </v>
   <v>       0.17500000       0.07500000       0.37500000 </v>
   <v>       0.22500000       0.07500000       0.37500000 </v>
   <v>       0.27500000       0.07500000       0.37500000 </v>
   <v>       0.32500000       0.07500000       0.37500000 </v>
   <v>       0.37500000       0.07500000       0.37500000 </v>
   <v>       0.42500000       0.07500000       0.37500000 </v>
   <v>       0.47500000       0.07500000       0.37500000 </v>
   <v>      -0.47500000       0.07500000       0.37500000 </v>
   <v>      -0.42500000       0.07500000       0.37500000 </v>
   <v>      -0.37500000       0.07500000       0.37500000 </v>
   <v>      -0.32500000       0.07500000       0.37500000 </v>
   <v>      -0.27500000       0.07500000       0.37500000 </v>
   <v>      -0.22500000       0.07500000       0.37500000 </v>
   <v>      -0.17500000       0.07500000       0.37500000 </v>
   <v>      -0.12500000       0.07500000       0.37500000 </v>
   <v>      -0.07500000       0.07500000       0.37500000 </v>
   <v>       0.12500000       0.12500000       0.37500000 </v>
   <v>       0.17500000       0.12500000       0.37500000 </v>
   <v>       0.22500000       0.12500000       0.37500000 </v>
   <v>       0.27500000       0.12500000       0.37500000 </v>
   <v>       0.32500000       0.12500000       0.37500000 </v>
   <v>       0.37500000       0.12500000       0.37500000 </v>
   <v>       0.42500000       0.12500000       0.37500000 </v>
   <v>       0.47500000       0.12500000       0.37500000 </v>
   <v>      -0.47500000       0.12500000       0.37500000 </v>
   <v>      -0.42500000       0.12500000       0.37500000 </v>
   <v>      -0.37500000       0.12500000       0.37500000 </v>
   <v>      -0.32500000       0.12500000       0.37500000 </v>
   <v>      -0.27500000       0.12500000       0.37500000 </v>
   <v>      -0.22500000       0.12500000       0.37500000 </v>
   <v>      -0.17500000       0.12500000       0.37500000 </v>
   <v>      -0.12500000       0.12500000       0.37500000 </v>
   <v>       0.17500000       0.17500000       0.37500000 </v>
   <v>       0.22500000       0.17500000       0.37500000 </v>
   <v>       0.27500000       0.17500000       0.37500000 </v>
   <v>       0.32500000       0.17500000       0.37500000 </v>
   <v>       0.37500000       0.17500000       0.37500000 </v>
   <v>       0.42500000       0.17500000       0.37500000 </v>
   <v>       0.47500000       0.17500000       0.37500000 </v>
   <v>      -0.47500000       0.17500000       0.37500000 </v>
   <v>      -0.42500000       0.17500000       0.37500000 </v>
   <v>      -0.37500000       0.17500000       0.37500000 </v>
   <v>      -0.32500000       0.17500000       0.37500000 </v>
   <v>      -0.27500000       0.17500000       0.37500000 </v>
   <v>      -0.22500000       0.17500000       0.37500000 </v>
   <v>      -0.17500000       0.17500000       0.37500000 </v>
   <v>       0.22500000       0.22500000       0.37500000 </v>
   <v>       0.27500000       0.22500000       0.37500000 </v>
   <v>       0.32500000       0.22500000       0.37500000 </v>
   <v>       0.37500000       0.22500000       0.37500000 </v>
   <v>       0.42500000       0.22500000       0.37500000 </v>
   <v>       0.47500000       0.22500000       0.37500000 </v>
   <v>      -0.47500000       0.22500000       0.37500000 </v>
   <v>      -0.42500000       0.22500000       0.37500000 </v>
   <v>      -0.37500000       0.22500000       0.37500000 </v>
   <v>      -0.32500000       0.22500000       0.37500000 </v>
   <v>      -0.27500000       0.22500000       0.37500000 </v>
   <v>      -0.22500000       0.22500000       0.37500000 </v>
   <v>       0.27500000       0.27500000       0.37500000 </v>
   <v>       0.32500000       0.27500000       0.37500000 </v>
   <v>       0.37500000       0.27500000       0.37500000 </v>
   <v>       0.42500000       0.27500000       0.37500000 </v>
   <v>       0.47500000       0.27500000       0.37500000 </v>
   <v>      -0.47500000       0.27500000       0.37500000 </v>
   <v>      -0.42500000       0.27500000       0.37500000 </v>
   <v>      -0.37500000       0.27500000       0.37500000 </v>
   <v>      -0.32500000       0.27500000       0.37500000 </v>
   <v>      -0.27500000       0.27500000       0.37500000 </v>
   <v>       0.32500000       0.32500000       0.37500000 </v>
   <v>       0.37500000       0.32500000       0.37500000 </v>
   <v>       0.42500000       0.32500000       0.37500000 </v>
   <v>       0.47500000       0.32500000       0.37500000 </v>
   <v>      -0.47500000       0.32500000       0.37500000 </v>
   <v>      -0.42500000       0.32500000       0.37500000 </v>
   <v>      -0.37500000       0.32500000       0.37500000 </v>
   <v>      -0.32500000       0.32500000       0.37500000 </v>
   <v>       0.37500000       0.37500000       0.37500000 </v>
   <v>       0.42500000       0.37500000       0.37500000 </v>
   <v>       0.47500000       0.37500000       0.37500000 </v>
   <v>      -0.47500000       0.37500000       0.37500000 </v>
   <v>      -0.42500000       0.37500000       0.37500000 </v>
   <v>      -0.37500000       0.37500000       0.37500000 </v>
   <v>       0.42500000       0.42500000       0.37500000 </v>
   <v>       0.47500000       0.42500000       0.37500000 </v>
   <v>      -0.47500000       0.42500000       0.37500000 </v>
   <v>      -0.42500000       0.42500000       0.37500000 </v>
   <v>       0.47500000       0.47500000       0.37500000 </v>
   <v>      -0.47500000       0.47500000       0.37500000 </v>
   <v>       0.02500000       0.02500000       0.42500000 </v>
   <v>       0.07500000       0.02500000       0.42500000 </v>
   <v>       0.12500000       0.02500000       0.42500000 </v>
   <v>       0.17500000       0.02500000       0.42500000 </v>
   <v>       0.22500000       0.02500000       0.42500000 </v>
   <v>       0.27500000       0.02500000       0.42500000 </v>
   <v>       0.32500000       0.02500000       0.42500000 </v>
   <v>       0.37500000       0.02500000       0.42500000 </v>
   <v>       0.42500000       0.02500000       0.42500000 </v>
   <v>       0.47500000       0.02500000       0.42500000 </v>
   <v>      -0.47500000       0.02500000       0.42500000 </v>
   <v>      -0.42500000       0.02500000       0.42500000 </v>
   <v>      -0.37500000       0.02500000       0.42500000 </v>
   <v>      -0.32500000       0.02500000       0.42500000 </v>
   <v>      -0.27500000       0.02500000       0.42500000 </v>
   <v>      -0.22500000       0.02500000       0.42500000 </v>
   <v>      -0.17500000       0.02500000       0.42500000 </v>
   <v>      -0.12500000       0.02500000       0.42500000 </v>
   <v>      -0.07500000       0.02500000       0.42500000 </v>
   <v>      -0.02500000       0.02500000       0.42500000 </v>
   <v>       0.07500000       0.07500000       0.42500000 </v>
   <v>       0.12500000       0.07500000       0.42500000 </v>
   <v>       0.17500000       0.07500000       0.42500000 </v>
   <v>       0.22500000       0.07500000       0.42500000 </v>
   <v>       0.27500000       0.07500000       0.42500000 </v>
   <v>       0.32500000       0.07500000       0.42500000 </v>
   <v>       0.37500000       0.07500000       0.42500000 </v>
   <v>       0.42500000       0.07500000       0.42500000 </v>
   <v>       0.47500000       0.07500000       0.42500000 </v>
   <v>      -0.47500000       0.07500000       0.42500000 </v>
   <v>      -0.42500000       0.07500000       0.42500000 </v>
   <v>      -0.37500000       0.07500000       0.42500000 </v>
   <v>      -0.32500000       0.07500000       0.42500000 </v>
   <v>      -0.27500000       0.07500000       0.42500000 </v>
   <v>      -0.22500000       0.07500000       0.42500000 </v>
   <v>      -0.17500000       0.07500000       0.42500000 </v>
   <v>      -0.12500000       0.07500000       0.42500000 </v>
   <v>      -0.07500000       0.07500000       0.42500000 </v>
   <v>       0.12500000       0.12500000       0.42500000 </v>
   <v>       0.17500000       0.12500000       0.42500000 </v>
   <v>       0.22500000       0.12500000       0.42500000 </v>
   <v>       0.27500000       0.12500000       0.42500000 </v>
   <v>       0.32500000       0.12500000       0.42500000 </v>
   <v>       0.37500000       0.12500000       0.42500000 </v>
   <v>       0.42500000       0.12500000       0.42500000 </v>
   <v>       0.47500000       0.12500000       0.42500000 </v>
   <v>      -0.47500000       0.12500000       0.42500000 </v>
   <v>      -0.42500000       0.12500000       0.42500000 </v>
   <v>      -0.37500000       0.12500000       0.42500000 </v>
   <v>      -0.32500000       0.12500000       0.42500000 </v>
   <v>      -0.27500000       0.12500000       0.42500000 </v>
   <v>      -0.22500000       0.12500000       0.42500000 </v>
   <v>      -0.17500000       0.12500000       0.42500000 </v>
   <v>      -0.12500000       0.12500000       0.42500000 </v>
   <v>       0.17500000       0.17500000       0.42500000 </v>
   <v>       0.22500000       0.17500000       0.42500000 </v>
   <v>       0.27500000       0.17500000       0.42500000 </v>
   <v>       0.32500000       0.17500000       0.42500000 </v>
   <v>       0.37500000       0.17500000       0.42500000 </v>
   <v>       0.42500000       0.17500000       0.42500000 </v>
   <v>       0.47500000       0.17500000       0.42500000 </v>
   <v>      -0.47500000       0.17500000       0.42500000 </v>
   <v>      -0.42500000       0.17500000       0.42500000 </v>
   <v>      -0.37500000       0.17500000       0.42500000 </v>
   <v>      -0.32500000       0.17500000       0.42500000 </v>
   <v>      -0.27500000       0.17500000       0.42500000 </v>
   <v>      -0.22500000       0.17500000       0.42500000 </v>
   <v>      -0.17500000       0.17500000       0.42500000 </v>
   <v>       0.22500000       0.22500000       0.42500000 </v>
   <v>       0.27500000       0.22500000       0.42500000 </v>
   <v>       0.32500000       0.22500000       0.42500000 </v>
   <v>       0.37500000       0.22500000       0.42500000 </v>
   <v>       0.42500000       0.22500000       0.42500000 </v>
   <v>       0.47500000       0.22500000       0.42500000 </v>
   <v>      -0.47500000       0.22500000       0.42500000 </v>
   <v>      -0.42500000       0.22500000       0.42500000 </v>
   <v>      -0.37500000       0.22500000       0.42500000 </v>
   <v>      -0.32500000       0.22500000       0.42500000 </v>
   <v>      -0.27500000       0.22500000       0.42500000 </v>
   <v>      -0.22500000       0.22500000       0.42500000 </v>
   <v>       0.27500000       0.27500000       0.42500000 </v>
   <v>       0.32500000       0.27500000       0.42500000 </v>
   <v>       0.37500000       0.27500000       0.42500000 </v>
   <v>       0.42500000       0.27500000       0.42500000 </v>
   <v>       0.47500000       0.27500000       0.42500000 </v>
   <v>      -0.47500000       0.27500000       0.42500000 </v>
   <v>      -0.42500000       0.27500000       0.42500000 </v>
   <v>      -0.37500000       0.27500000       0.42500000 </v>
   <v>      -0.32500000       0.27500000       0.42500000 </v>
   <v>      -0.27500000       0.27500000       0.42500000 </v>
   <v>       0.32500000       0.32500000       0.42500000 </v>
   <v>       0.37500000       0.32500000       0.42500000 </v>
   <v>       0.42500000       0.32500000       0.42500000 </v>
   <v>       0.47500000       0.32500000       0.42500000 </v>
   <v>      -0.47500000       0.32500000       0.42500000 </v>
   <v>      -0.42500000       0.32500000       0.42500000 </v>
   <v>      -0.37500000       0.32500000       0.42500000 </v>
   <v>      -0.32500000       0.32500000       0.42500000 </v>
   <v>       0.37500000       0.37500000       0.42500000 </v>
   <v>       0.42500000       0.37500000       0.42500000 </v>
   <v>       0.47500000       0.37500000       0.42500000 </v>
   <v>      -0.47500000       0.37500000       0.42500000 </v>
   <v>      -0.42500000       0.37500000       0.42500000 </v>
   <v>      -0.37500000       0.37500000       0.42500000 </v>
   <v>       0.42500000       0.42500000       0.42500000 </v>
   <v>       0.47500000       0.42500000       0.42500000 </v>
   <v>      -0.47500000       0.42500000       0.42500000 </v>
   <v>      -0.42500000       0.42500000       0.42500000 </v>
   <v>       0.47500000       0.47500000       0.42500000 </v>
   <v>      -0.47500000       0.47500000       0.42500000 </v>
   <v>       0.02500000       0.02500000       0.47500000 </v>
   <v>       0.07500000       0.02500000       0.47500000 </v>
   <v>       0.12500000       0.02500000       0.47500000 </v>
   <v>       0.17500000       0.02500000       0.47500000 </v>
   <v>       0.22500000       0.02500000       0.47500000 </v>
   <v>       0.27500000       0.02500000       0.47500000 </v>
   <v>       0.32500000       0.02500000       0.47500000 </v>
   <v>       0.37500000       0.02500000       0.47500000 </v>
   <v>       0.42500000       0.02500000       0.47500000 </v>
   <v>       0.47500000       0.02500000       0.47500000 </v>
   <v>      -0.47500000       0.02500000       0.47500000 </v>
   <v>      -0.42500000       0.02500000       0.47500000 </v>
   <v>      -0.37500000       0.02500000       0.47500000 </v>
   <v>      -0.32500000       0.02500000       0.47500000 </v>
   <v>      -0.27500000       0.02500000       0.47500000 </v>
   <v>      -0.22500000       0.02500000       0.47500000 </v>
   <v>      -0.17500000       0.02500000       0.47500000 </v>
   <v>      -0.12500000       0.02500000       0.47500000 </v>
   <v>      -0.07500000       0.02500000       0.47500000 </v>
   <v>      -0.02500000       0.02500000       0.47500000 </v>
   <v>       0.07500000       0.07500000       0.47500000 </v>
   <v>       0.12500000       0.07500000       0.47500000 </v>
   <v>       0.17500000       0.07500000       0.47500000 </v>
   <v>       0.22500000       0.07500000       0.47500000 </v>
   <v>       0.27500000       0.07500000       0.47500000 </v>
   <v>       0.32500000       0.07500000       0.47500000 </v>
   <v>       0.37500000       0.07500000       0.47500000 </v>
   <v>       0.42500000       0.07500000       0.47500000 </v>
   <v>       0.47500000       0.07500000       0.47500000 </v>
   <v>      -0.47500000       0.07500000       0.47500000 </v>
   <v>      -0.42500000       0.07500000       0.47500000 </v>
   <v>      -0.37500000       0.07500000       0.47500000 </v>
   <v>      -0.32500000       0.07500000       0.47500000 </v>
   <v>      -0.27500000       0.07500000       0.47500000 </v>
   <v>      -0.22500000       0.07500000       0.47500000 </v>
   <v>      -0.17500000       0.07500000       0.47500000 </v>
   <v>      -0.12500000       0.07500000       0.47500000 </v>
   <v>      -0.07500000       0.07500000       0.47500000 </v>
   <v>       0.12500000       0.12500000       0.47500000 </v>
   <v>       0.17500000       0.12500000       0.47500000 </v>
   <v>       0.22500000       0.12500000       0.47500000 </v>
   <v>       0.27500000       0.12500000       0.47500000 </v>
   <v>       0.32500000       0.12500000       0.47500000 </v>
   <v>       0.37500000       0.12500000       0.47500000 </v>
   <v>       0.42500000       0.12500000       0.47500000 </v>
   <v>       0.47500000       0.12500000       0.47500000 </v>
   <v>      -0.47500000       0.12500000       0.47500000 </v>
   <v>      -0.42500000       0.12500000       0.47500000 </v>
   <v>      -0.37500000       0.12500000       0.47500000 </v>
   <v>      -0.32500000       0.12500000       0.47500000 </v>
   <v>      -0.27500000       0.12500000       0.47500000 </v>
   <v>      -0.22500000       0.12500000       0.47500000 </v>
   <v>      -0.17500000       0.12500000       0.47500000 </v>
   <v>      -0.12500000       0.12500000       0.47500000 </v>
   <v>       0.17500000       0.17500000       0.47500000 </v>
   <v>       0.22500000       0.17500000       0.47500000 </v>
   <v>       0.27500000       0.17500000       0.47500000 </v>
   <v>       0.32500000       0.17500000       0.47500000 </v>
   <v>       0.37500000       0.17500000       0.47500000 </v>
   <v>       0.42500000       0.17500000       0.47500000 </v>
   <v>       0.47500000       0.17500000       0.47500000 </v>
   <v>      -0.47500000       0.17500000       0.47500000 </v>
   <v>      -0.42500000       0.17500000       0.47500000 </v>
   <v>      -0.37500000       0.17500000       0.47500000 </v>
   <v>      -0.32500000       0.17500000       0.47500000 </v>
   <v>      -0.27500000       0.17500000       0.47500000 </v>
   <v>      -0.22500000       0.17500000       0.47500000 </v>
   <v>      -0.17500000       0.17500000       0.47500000 </v>
   <v>       0.22500000       0.22500000       0.47500000 </v>
   <v>       0.27500000       0.22500000       0.47500000 </v>
   <v>       0.32500000       0.22500000       0.47500000 </v>
   <v>       0.37500000       0.22500000       0.47500000 </v>
   <v>       0.42500000       0.22500000       0.47500000 </v>
   <v>       0.47500000       0.22500000       0.47500000 </v>
   <v>      -0.47500000       0.22500000       0.47500000 </v>
   <v>      -0.42500000       0.22500000       0.47500000 </v>
   <v>      -0.37500000       0.22500000       0.47500000 </v>
   <v>      -0.32500000       0.22500000       0.47500000 </v>
   <v>      -0.27500000       0.22500000       0.47500000 </v>
   <v>      -0.22500000       0.22500000       0.47500000 </v>
   <v>       0.27500000       0.27500000       0.47500000 </v>
   <v>       0.32500000       0.27500000       0.47500000 </v>
   <v>       0.37500000       0.27500000       0.47500000 </v>
   <v>       0.42500000       0.27500000       0.47500000 </v>
   <v>       0.47500000       0.27500000       0.47500000 </v>
   <v>      -0.47500000       0.27500000       0.47500000 </v>
   <v>      -0.42500000       0.27500000       0.47500000 </v>
   <v>      -0.37500000       0.27500000       0.47500000 </v>
   <v>      -0.32500000       0.27500000       0.47500000 </v>
   <v>      -0.27500000       0.27500000       0.47500000 </v>
   <v>       0.32500000       0.32500000       0.47500000 </v>
   <v>       0.37500000       0.32500000       0.47500000 </v>
   <v>       0.42500000       0.32500000       0.47500000 </v>
   <v>       0.47500000       0.32500000       0.47500000 </v>
   <v>      -0.47500000       0.32500000       0.47500000 </v>
   <v>      -0.42500000       0.32500000       0.47500000 </v>
   <v>      -0.37500000       0.32500000       0.47500000 </v>
   <v>      -0.32500000       0.32500000       0.47500000 </v>
   <v>       0.37500000       0.37500000       0.47500000 </v>
   <v>       0.42500000       0.37500000       0.47500000 </v>
   <v>       0.47500000       0.37500000       0.47500000 </v>
   <v>      -0.47500000       0.37500000       0.47500000 </v>
   <v>      -0.42500000       0.37500000       0.47500000 </v>
   <v>      -0.37500000       0.37500000       0.47500000 </v>
   <v>       0.42500000       0.42500000       0.47500000 </v>
   <v>       0.47500000       0.42500000       0.47500000 </v>
   <v>      -0.47500000       0.42500000       0.47500000 </v>
   <v>      -0.42500000       0.42500000       0.47500000 </v>
   <v>       0.47500000       0.47500000       0.47500000 </v>
   <v>      -0.47500000       0.47500000       0.47500000 </v>
  </varray>
  <varray name="weights" >
   <v>       0.00050000 </v>
   <v>       0.00100000 </v>
   <v>       0.00100000 </v>
   <v>       0.00100000 </v>
   <v>       0.00100000 </v>
   <v>       0.00100000 </v>
   <v>       0.00100000 </v>
   <v>       0.00100000 </v>
   <v>       0.00100000 </v>
   <v>       0.00100000 </v>
   <v>       0.00100000 </v>
   <v>       0.00100000 </v>
   <v>       0.00100000 </v>
   <v>       0.00100000 </v>
   <v>       0.00100000 </v>
   <v>       0.00100000 </v>
   <v>       0.00100000 </v>
   <v>       0.00100000 </v>
   <v>       0.00100000 </v>
   <v>       0.00050000 </v>
   <v>       0.00050000 </v>
   <v>       0.00100000 </v>
   <v>       0.00100000 </v>
   <v>       0.00100000 </v>
   <v>       0.00100000 </v>
   <v>       0.00100000 </v>
   <v>       0.00100000 </v>
   <v>       0.00100000 </v>
   <v>       0.00100000 </v>
   <v>       0.00100000 </v>
   <v>       0.00100000 </v>
   <v>       0.00100000 </v>
   <v>       0.00100000 </v>
   <v>       0.00100000 </v>
   <v>       0.00100000 </v>
   <v>       0.00100000 </v>
   <v>       0.00100000 </v>
   <v>       0.00050000 </v>
   <v>       0.00050000 </v>
   <v>       0.00100000 </v>
   <v>       0.00100000 </v>
   <v>       0.00100000 </v>
   <v>       0.00100000 </v>
   <v>       0.00100000 </v>
   <v>       0.00100000 </v>
   <v>       0.00100000 </v>
   <v>       0.00100000 </v>
   <v>       0.00100000 </v>
   <v>       0.00100000 </v>
   <v>       0.00100000 </v>
   <v>       0.00100000 </v>
   <v>       0.00100000 </v>
   <v>       0.00100000 </v>
   <v>       0.00050000 </v>
   <v>       0.00050000 </v>
   <v>       0.00100000 </v>
   <v>       0.00100000 </v>
   <v>       0.00100000 </v>
   <v>       0.00100000 </v>
   <v>       0.00100000 </v>
   <v>       0.00100000 </v>
   <v>       0.00100000 </v>
   <v>       0.00100000 </v>
   <v>       0.00100000 </v>
   <v>       0.00100000 </v>
   <v>       0.00100000 </v>
   <v>       0.00100000 </v>
   <v>       0.00050000 </v>
   <v>       0.00050000 </v>
   <v>       0.00100000 </v>
   <v>       0.00100000 </v>
   <v>       0.00100000 </v>
   <v>       0.00100000 </v>
   <v>       0.00100000 </v>
   <v>       0.00100000 </v>
   <v>       0.00100000 </v>
   <v>       0.00100000 </v>
   <v>       0.00100000 </v>
   <v>       0.00100000 </v>
   <v>       0.00050000 </v>
   <v>       0.00050000 </v>
   <v>       0.00100000 </v>
   <v>       0.00100000 </v>
   <v>       0.00100000 </v>
   <v>       0.00100000 </v>
   <v>       0.00100000 </v>
   <v>       0.00100000 </v>
   <v>       0.00100000 </v>
   <v>       0.00100000 </v>
   <v>       0.00050000 </v>
   <v>       0.00050000 </v>
   <v>       0.00100000 </v>
   <v>       0.00100000 </v>
   <v>       0.00100000 </v>
   <v>       0.00100000 </v>
   <v>       0.00100000 </v>
   <v>       0.00100000 </v>
   <v>       0.00050000 </v>
   <v>       0.00050000 </v>
   <v>       0.00100000 </v>
   <v>       0.00100000 </v>
   <v>       0.00100000 </v>
   <v>       0.00100000 </v>
   <v>       0.00050000 </v>
   <v>       0.00050000 </v>
   <v>       0.00100000 </v>
   <v>       0.00100000 </v>
   <v>       0.00050000 </v>
   <v>       0.00050000 </v>
   <v>       0.00050000 </v>
   <v>       0.00050000 </v>
   <v>       0.00100000 </v>
   <v>       0.00100000 </v>
   <v>       0.00100000 </v>
   <v>       0.00100000 </v>
   <v>       0.00100000 </v>
   <v>       0.00100000 </v>
   <v>       0.00100000 </v>
   <v>       0.00100000 </v>
   <v>       0.00100000 </v>
   <v>       0.00100000 </v>
   <v>       0.00100000 </v>
   <v>       0.00100000 </v>
   <v>       0.00100000 </v>
   <v>       0.00100000 </v>
   <v>       0.00100000 </v>
   <v>       0.00100000 </v>
   <v>       0.00100000 </v>
   <v>       0.00100000 </v>
   <v>       0.00050000 </v>
   <v>       0.00050000 </v>
   <v>       0.00100000 </v>
   <v>       0.00100000 </v>
   <v>       0.00100000 </v>
   <v>       0.00100000 </v>
   <v>       0.00100000 </v>
   <v>       0.00100000 </v>
   <v>       0.00100000 </v>
   <v>       0.00100000 </v>
   <v>       0.00100000 </v>
   <v>       0.00100000 </v>
   <v>       0.00100000 </v>
   <v>       0.00100000 </v>
   <v>       0.00100000 </v>
   <v>       0.00100000 </v>
   <v>       0.00100000 </v>
   <v>       0.00100000 </v>
   <v>       0.00050000 </v>
   <v>       0.00050000 </v>
   <v>       0.00100000 </v>
   <v>       0.00100000 </v>
   <v>       0.00100000 </v>
   <v>       0.00100000 </v>
   <v>       0.00100000 </v>
   <v>       0.00100000 </v>
   <v>       0.00100000 </v>
   <v>       0.00100000 </v>
   <v>       0.00100000 </v>
   <v>       0.00100000 </v>
   <v>       0.00100000 </v>
   <v>       0.00100000 </v>
   <v>       0.00100000 </v>
   <v>       0.00100000 </v>
   <v>       0.00050000 </v>
   <v>       0.00050000 </v>
   <v>       0.00100000 </v>
   <v>       0.00100000 </v>
   <v>       0.00100000 </v>
   <v>       0.00100000 </v>
   <v>       0.00100000 </v>
   <v>       0.00100000 </v>
   <v>       0.00100000 </v>
   <v>       0.00100000 </v>
   <v>       0.00100000 </v>
   <v>       0.00100000 </v>
   <v>       0.00100000 </v>
   <v>       0.00100000 </v>
   <v>       0.00050000 </v>
   <v>       0.00050000 </v>
   <v>       0.00100000 </v>
   <v>       0.00100000 </v>
   <v>       0.00100000 </v>
   <v>       0.00100000 </v>
   <v>       0.00100000 </v>
   <v>       0.00100000 </v>
   <v>       0.00100000 </v>
   <v>       0.00100000 </v>
   <v>       0.00100000 </v>
   <v>       0.00100000 </v>
   <v>       0.00050000 </v>
   <v>       0.00050000 </v>
   <v>       0.00100000 </v>
   <v>       0.00100000 </v>
   <v>       0.00100000 </v>
   <v>       0.00100000 </v>
   <v>       0.00100000 </v>
   <v>       0.00100000 </v>
   <v>       0.00100000 </v>
   <v>       0.00100000 </v>
   <v>       0.00050000 </v>
   <v>       0.00050000 </v>
   <v>       0.00100000 </v>
   <v>       0.00100000 </v>
   <v>       0.00100000 </v>
   <v>       0.00100000 </v>
   <v>       0.00100000 </v>
   <v>       0.00100000 </v>
   <v>       0.00050000 </v>
   <v>       0.00050000 </v>
   <v>       0.00100000 </v>
   <v>       0.00100000 </v>
   <v>       0.00100000 </v>
   <v>       0.00100000 </v>
   <v>       0.00050000 </v>
   <v>       0.00050000 </v>
   <v>       0.00100000 </v>
   <v>       0.00100000 </v>
   <v>       0.00050000 </v>
   <v>       0.00050000 </v>
   <v>       0.00050000 </v>
   <v>       0.00050000 </v>
   <v>       0.00100000 </v>
   <v>       0.00100000 </v>
   <v>       0.00100000 </v>
   <v>       0.00100000 </v>
   <v>       0.00100000 </v>
   <v>       0.00100000 </v>
   <v>       0.00100000 </v>
   <v>       0.00100000 </v>
   <v>       0.00100000 </v>
   <v>       0.00100000 </v>
   <v>       0.00100000 </v>
   <v>       0.00100000 </v>
   <v>       0.00100000 </v>
   <v>       0.00100000 </v>
   <v>       0.00100000 </v>
   <v>       0.00100000 </v>
   <v>       0.00100000 </v>
   <v>       0.00100000 </v>
   <v>       0.00050000 </v>
   <v>       0.00050000 </v>
   <v>       0.00100000 </v>
   <v>       0.00100000 </v>
   <v>       0.00100000 </v>
   <v>       0.00100000 </v>
   <v>       0.00100000 </v>
   <v>       0.00100000 </v>
   <v>       0.00100000 </v>
   <v>       0.00100000 </v>
   <v>       0.00100000 </v>
   <v>       0.00100000 </v>
   <v>       0.00100000 </v>
   <v>       0.00100000 </v>
   <v>       0.00100000 </v>
   <v>       0.00100000 </v>
   <v>       0.00100000 </v>
   <v>       0.00100000 </v>
   <v>       0.00050000 </v>
   <v>       0.00050000 </v>
   <v>       0.00100000 </v>
   <v>       0.00100000 </v>
   <v>       0.00100000 </v>
   <v>       0.00100000 </v>
   <v>       0.00100000 </v>
   <v>       0.00100000 </v>
   <v>       0.00100000 </v>
   <v>       0.00100000 </v>
   <v>       0.00100000 </v>
   <v>       0.00100000 </v>
   <v>       0.00100000 </v>
   <v>       0.00100000 </v>
   <v>       0.00100000 </v>
   <v>       0.00100000 </v>
   <v>       0.00050000 </v>
   <v>       0.00050000 </v>
   <v>       0.00100000 </v>
   <v>       0.00100000 </v>
   <v>       0.00100000 </v>
   <v>       0.00100000 </v>
   <v>       0.00100000 </v>
   <v>       0.00100000 </v>
[...]
       <r>    1.8624    1.0000 </r>
       <r>    3.5234    1.0000 </r>
       <r>    3.5234    1.0000 </r>
       <r>    3.9994    1.0000 </r>
       <r>    3.9994    1.0000 </r>
       <r>    5.8129    1.0000 </r>
       <r>    6.2403    1.0000 </r>
       <r>   16.3300    0.0000 </r>
       <r>   16.3300    0.0000 </r>
       <r>   16.7228    0.0000 </r>
       <r>   16.7228    0.0000 </r>
       <r>   17.4143    0.0000 </r>
       <r>   17.8331    0.0000 </r>
      </set>
      <set comment="kpoint 1095">
       <r>    2.0699    1.0000 </r>
       <r>    2.5060    1.0000 </r>
       <r>    3.4206    1.0000 </r>
       <r>    3.4206    1.0000 </r>
       <r>    3.9258    1.0000 </r>
       <r>    3.9258    1.0000 </r>
       <r>    4.6583    1.0000 </r>
       <r>    5.0878    1.0000 </r>
       <r>   17.5020    0.0000 </r>
       <r>   17.5020    0.0000 </r>
       <r>   17.8195    0.0000 </r>
       <r>   17.8196    0.0000 </r>
       <r>   18.3403    0.0000 </r>
       <r>   18.3411    0.0000 </r>
      </set>
      <set comment="kpoint 1096">
       <r>    2.4590    1.0000 </r>
       <r>    2.8926    1.0000 </r>
       <r>    2.9621    1.0000 </r>
       <r>    3.3750    1.0000 </r>
       <r>    3.8864    1.0000 </r>
       <r>    4.1910    1.0000 </r>
       <r>    4.2971    1.0000 </r>
       <r>    4.6202    1.0000 </r>
       <r>   17.8212    0.0000 </r>
       <r>   18.1056    0.0000 </r>
       <r>   18.3258    0.0000 </r>
       <r>   18.5137    0.0000 </r>
       <r>   18.5288    0.0000 </r>
       <r>   18.6150    0.0000 </r>
      </set>
      <set comment="kpoint 1097">
       <r>    2.5272    1.0000 </r>
       <r>    2.8890    1.0000 </r>
       <r>    2.9585    1.0000 </r>
       <r>    3.3113    1.0000 </r>
       <r>    3.7757    1.0000 </r>
       <r>    4.1958    1.0000 </r>
       <r>    4.3019    1.0000 </r>
       <r>    4.7288    1.0000 </r>
       <r>   18.0375    0.0000 </r>
       <r>   18.0789    0.0000 </r>
       <r>   18.2985    0.0000 </r>
       <r>   18.4153    0.0000 </r>
       <r>   18.5863    0.0000 </r>
       <r>   18.6599    0.0000 </r>
      </set>
      <set comment="kpoint 1098">
       <r>    2.1318    1.0000 </r>
       <r>    2.5669    1.0000 </r>
       <r>    3.3508    1.0000 </r>
       <r>    3.3508    1.0000 </r>
       <r>    3.8238    1.0000 </r>
       <r>    3.8238    1.0000 </r>
       <r>    4.7765    1.0000 </r>
       <r>    5.2049    1.0000 </r>
       <r>   17.7090    0.0000 </r>
       <r>   17.7093    0.0000 </r>
       <r>   17.9555    0.0000 </r>
       <r>   17.9558    0.0000 </r>
       <r>   18.0487    0.0000 </r>
       <r>   18.3913    0.0000 </r>
      </set>
      <set comment="kpoint 1099">
       <r>    2.8453    1.0000 </r>
       <r>    3.2681    1.0000 </r>
       <r>    3.3363    1.0000 </r>
       <r>    3.3363    1.0000 </r>
       <r>    3.7317    1.0000 </r>
       <r>    3.8392    1.0000 </r>
       <r>    3.8392    1.0000 </r>
       <r>    4.1522    1.0000 </r>
       <r>   18.7723    0.0000 </r>
       <r>   18.7756    0.0000 </r>
       <r>   18.8646    0.0000 </r>
       <r>   18.8655    0.0000 </r>
       <r>   18.8732    0.0000 </r>
       <r>   19.0525    0.0000 </r>
      </set>
      <set comment="kpoint 1100">
       <r>    2.9193    1.0000 </r>
       <r>    3.2644    1.0000 </r>
       <r>    3.2644    1.0000 </r>
       <r>    3.3328    1.0000 </r>
       <r>    3.7358    1.0000 </r>
       <r>    3.7358    1.0000 </r>
       <r>    3.8432    1.0000 </r>
       <r>    4.2544    1.0000 </r>
       <r>   18.7733    0.0000 </r>
       <r>   18.9110    0.0000 </r>
       <r>   18.9242    0.0000 </r>
       <r>   18.9460    0.0000 </r>
       <r>   19.0039    0.0000 </r>
       <r>   19.0713    0.0000 </r>
      </set>
     </set>
    </set>
   </array>
  </eigenvalues>
  <separator name="orbital magnetization" >
   <v name="MAGDIPOLOUT">      0.00000000      0.00000000      0.00000000</v>
  </separator>
  <dos>
   <i name="efermi">      8.03367696 </i>
   <total>
    <array>
     <dimension dim="1">gridpoints</dimension>
     <dimension dim="2">spin</dimension>
     <field>energy</field>
     <field>total</field>
     <field>integrated</field>
     <set>
      <set comment="spin 1">
       <r>    -5.1112     0.0000     0.0000 </r>
       <r>    -5.0239     0.0000     0.0000 </r>
       <r>    -4.9366     0.0000     0.0000 </r>
       <r>    -4.8493     0.0000     0.0000 </r>
       <r>    -4.7621    -0.0000    -0.0000 </r>
       <r>    -4.6748    -0.0000    -0.0000 </r>
       <r>    -4.5875    -0.0000    -0.0000 </r>
       <r>    -4.5002    -0.0000    -0.0000 </r>
       <r>    -4.4130    -0.0000    -0.0000 </r>
       <r>    -4.3257    -0.0000    -0.0000 </r>
       <r>    -4.2384    -0.0000    -0.0000 </r>
       <r>    -4.1511    -0.0000    -0.0000 </r>
       <r>    -4.0639    -0.0000    -0.0000 </r>
       <r>    -3.9766    -0.0000    -0.0000 </r>
       <r>    -3.8893    -0.0000    -0.0000 </r>
       <r>    -3.8020    -0.0000    -0.0000 </r>
       <r>    -3.7148    -0.0000    -0.0000 </r>
       <r>    -3.6275    -0.0000    -0.0000 </r>
       <r>    -3.5402    -0.0003    -0.0000 </r>
       <r>    -3.4529    -0.0014    -0.0001 </r>
       <r>    -3.3657    -0.0039    -0.0005 </r>
       <r>    -3.2784    -0.0052    -0.0009 </r>
       <r>    -3.1911     0.0056    -0.0005 </r>
       <r>    -3.1038     0.0423     0.0032 </r>
       <r>    -3.0166     0.1035     0.0123 </r>
       <r>    -2.9293     0.1699     0.0271 </r>
       <r>    -2.8420     0.2244     0.0467 </r>
       <r>    -2.7547     0.2653     0.0699 </r>
       <r>    -2.6675     0.2989     0.0959 </r>
       <r>    -2.5802     0.3280     0.1246 </r>
       <r>    -2.4929     0.3548     0.1555 </r>
       <r>    -2.4056     0.3821     0.1889 </r>
       <r>    -2.3184     0.4054     0.2243 </r>
       <r>    -2.2311     0.4250     0.2614 </r>
       <r>    -2.1438     0.4504     0.3007 </r>
       <r>    -2.0565     0.4745     0.3421 </r>
       <r>    -1.9693     0.4875     0.3846 </r>
       <r>    -1.8820     0.5030     0.4285 </r>
       <r>    -1.7947     0.5321     0.4750 </r>
       <r>    -1.7074     0.5560     0.5235 </r>
       <r>    -1.6202     0.5577     0.5722 </r>
       <r>    -1.5329     0.5657     0.6215 </r>
       <r>    -1.4456     0.6026     0.6741 </r>
       <r>    -1.3583     0.6311     0.7292 </r>
       <r>    -1.2711     0.6278     0.7840 </r>
       <r>    -1.1838     0.6265     0.8387 </r>
       <r>    -1.0965     0.6511     0.8955 </r>
       <r>    -1.0092     0.6852     0.9553 </r>
       <r>    -0.9220     0.7074     1.0170 </r>
       <r>    -0.8347     0.7093     1.0789 </r>
       <r>    -0.7474     0.6960     1.1397 </r>
       <r>    -0.6601     0.7024     1.2010 </r>
       <r>    -0.5729     0.7546     1.2668 </r>
       <r>    -0.4856     0.8019     1.3368 </r>
       <r>    -0.3983     0.7864     1.4054 </r>
       <r>    -0.3110     0.7478     1.4707 </r>
       <r>    -0.2238     0.7619     1.5372 </r>
       <r>    -0.1365     0.8191     1.6087 </r>
       <r>    -0.0492     0.8518     1.6830 </r>
       <r>     0.0381     0.8521     1.7574 </r>
       <r>     0.1253     0.8511     1.8317 </r>
       <r>     0.2126     0.8478     1.9057 </r>
       <r>     0.2999     0.8434     1.9793 </r>
       <r>     0.3871     0.8584     2.0542 </r>
       <r>     0.4744     0.9034     2.1330 </r>
       <r>     0.5617     0.9537     2.2163 </r>
       <r>     0.6490     0.9613     2.3002 </r>
       <r>     0.7362     0.9190     2.3804 </r>
       <r>     0.8235     0.8772     2.4569 </r>
       <r>     0.9108     0.8965     2.5352 </r>
       <r>     0.9981     0.9822     2.6209 </r>
       <r>     1.0853     1.0500     2.7125 </r>
       <r>     1.1726     1.0286     2.8023 </r>
       <r>     1.2599     0.9702     2.8870 </r>
       <r>     1.3472     0.9641     2.9711 </r>
       <r>     1.4344     1.0029     3.0587 </r>
       <r>     1.5217     1.0265     3.1482 </r>
       <r>     1.6090     1.0330     3.2384 </r>
       <r>     1.6963     1.0542     3.3304 </r>
       <r>     1.7835     1.0904     3.4256 </r>
       <r>     1.8708     1.1175     3.5231 </r>
       <r>     1.9581     1.1056     3.6196 </r>
       <r>     2.0454     1.0510     3.7113 </r>
       <r>     2.1326     1.0149     3.7999 </r>
       <r>     2.2199     1.0675     3.8930 </r>
       <r>     2.3072     1.1660     3.9948 </r>
       <r>     2.3945     1.2115     4.1005 </r>
       <r>     2.4817     1.2017     4.2054 </r>
       <r>     2.5690     1.1684     4.3074 </r>
       <r>     2.6563     1.1110     4.4044 </r>
       <r>     2.7436     1.0823     4.4988 </r>
       <r>     2.8308     1.1440     4.5987 </r>
       <r>     2.9181     1.2392     4.7068 </r>
       <r>     3.0054     1.2685     4.8175 </r>
       <r>     3.0927     1.2419     4.9259 </r>
       <r>     3.1799     1.2256     5.0329 </r>
       <r>     3.2672     1.2325     5.1404 </r>
       <r>     3.3545     1.2554     5.2500 </r>
       <r>     3.4418     1.2772     5.3615 </r>
       <r>     3.5290     1.2568     5.4712 </r>
       <r>     3.6163     1.2090     5.5767 </r>
       <r>     3.7036     1.2176     5.6829 </r>
       <r>     3.7909     1.3105     5.7973 </r>
       <r>     3.8781     1.3959     5.9191 </r>
       <r>     3.9654     1.3884     6.0403 </r>
       <r>     4.0527     1.3158     6.1551 </r>
       <r>     4.1400     1.2519     6.2644 </r>
       <r>     4.2272     1.2391     6.3725 </r>
       <r>     4.3145     1.2891     6.4851 </r>
       <r>     4.4018     1.3883     6.6062 </r>
       <r>     4.4891     1.4773     6.7351 </r>
       <r>     4.5763     1.4844     6.8647 </r>
       <r>     4.6636     1.4146     6.9882 </r>
       <r>     4.7509     1.3509     7.1060 </r>
       <r>     4.8382     1.3546     7.2243 </r>
       <r>     4.9254     1.4216     7.3483 </r>
       <r>     5.0127     1.5127     7.4804 </r>
       <r>     5.1000     1.5752     7.6178 </r>
       <r>     5.1873     1.5800     7.7557 </r>
       <r>     5.2745     1.5425     7.8904 </r>
       <r>     5.3618     1.4894     8.0204 </r>
       <r>     5.4491     1.4595     8.1477 </r>
       <r>     5.5364     1.4920     8.2780 </r>
       <r>     5.6236     1.5465     8.4129 </r>
       <r>     5.7109     1.5349     8.5469 </r>
       <r>     5.7982     1.4614     8.6744 </r>
       <r>     5.8855     1.4010     8.7967 </r>
       <r>     5.9727     1.3751     8.9167 </r>
       <r>     6.0600     1.3724     9.0365 </r>
       <r>     6.1473     1.4031     9.1590 </r>
       <r>     6.2346     1.4385     9.2845 </r>
       <r>     6.3218     1.4238     9.4088 </r>
       <r>     6.4091     1.3813     9.5293 </r>
       <r>     6.4964     1.3641     9.6484 </r>
       <r>     6.5837     1.3814     9.7689 </r>
       <r>     6.6709     1.4492     9.8954 </r>
       <r>     6.7582     1.5567    10.0312 </r>
       <r>     6.8455     1.6130    10.1720 </r>
       <r>     6.9328     1.5672    10.3088 </r>
       <r>     7.0200     1.4923    10.4390 </r>
       <r>     7.1073     1.4793    10.5682 </r>
       <r>     7.1946     1.5336    10.7020 </r>
       <r>     7.2819     1.5975    10.8414 </r>
       <r>     7.3691     1.6137    10.9823 </r>
       <r>     7.4564     1.5625    11.1186 </r>
       <r>     7.5437     1.4895    11.2486 </r>
       <r>     7.6310     1.4912    11.3788 </r>
       <r>     7.7182     1.5880    11.5173 </r>
       <r>     7.8055     1.6511    11.6614 </r>
       <r>     7.8928     1.5786    11.7992 </r>
       <r>     7.9801     1.4455    11.9254 </r>
       <r>     8.0673     1.3996    12.0475 </r>
       <r>     8.1546     1.5151    12.1798 </r>
       <r>     8.2419     1.7271    12.3305 </r>
       <r>     8.3292     1.8811    12.4947 </r>
       <r>     8.4164     1.8836    12.6591 </r>
       <r>     8.5037     1.7662    12.8132 </r>
       <r>     8.5910     1.6261    12.9551 </r>
       <r>     8.6783     1.5581    13.0911 </r>
       <r>     8.7655     1.5858    13.2295 </r>
       <r>     8.8528     1.6347    13.3722 </r>
       <r>     8.9401     1.6453    13.5158 </r>
       <r>     9.0274     1.6518    13.6599 </r>
       <r>     9.1146     1.6805    13.8066 </r>
       <r>     9.2019     1.7089    13.9557 </r>
       <r>     9.2892     1.7472    14.1082 </r>
       <r>     9.3765     1.8085    14.2661 </r>
       <r>     9.4637     1.8358    14.4263 </r>
       <r>     9.5510     1.7848    14.5821 </r>
       <r>     9.6383     1.7030    14.7307 </r>
       <r>     9.7256     1.6473    14.8745 </r>
       <r>     9.8128     1.6156    15.0154 </r>
       <r>     9.9001     1.6106    15.1560 </r>
       <r>     9.9874     1.6881    15.3033 </r>
       <r>    10.0747     1.8642    15.4660 </r>
       <r>    10.1619     2.0330    15.6435 </r>
       <r>    10.2492     2.0401    15.8215 </r>
       <r>    10.3365     1.8322    15.9814 </r>
       <r>    10.4238     1.5808    16.1194 </r>
       <r>    10.5110     1.5692    16.2563 </r>
       <r>    10.5983     1.8172    16.4149 </r>
       <r>    10.6856     2.0268    16.5918 </r>
       <r>    10.7729     2.0127    16.7675 </r>
       <r>    10.8601     1.8799    16.9316 </r>
       <r>    10.9474     1.7609    17.0852 </r>
       <r>    11.0347     1.7124    17.2347 </r>
       <r>    11.1220     1.7744    17.3896 </r>
       <r>    11.2092     1.8848    17.5541 </r>
       <r>    11.2965     1.9318    17.7227 </r>
       <r>    11.3838     1.9470    17.8926 </r>
       <r>    11.4711     2.0048    18.0676 </r>
       <r>    11.5583     2.0483    18.2463 </r>
       <r>    11.6456     2.0103    18.4218 </r>
       <r>    11.7329     1.9260    18.5899 </r>
       <r>    11.8202     1.8562    18.7519 </r>
       <r>    11.9074     1.8327    18.9118 </r>
       <r>    11.9947     1.8614    19.0743 </r>
       <r>    12.0820     1.9112    19.2411 </r>
       <r>    12.1693     1.9429    19.4106 </r>
       <r>    12.2565     1.9764    19.5831 </r>
       <r>    12.3438     2.0661    19.7634 </r>
       <r>    12.4311     2.1890    19.9545 </r>
       <r>    12.5184     2.2217    20.1484 </r>
       <r>    12.6056     2.1004    20.3317 </r>
       <r>    12.6929     1.9377    20.5008 </r>
       <r>    12.7802     1.8881    20.6656 </r>
       <r>    12.8675     1.9756    20.8380 </r>
       <r>    12.9547     2.0893    21.0203 </r>
       <r>    13.0420     2.1244    21.2057 </r>
       <r>    13.1293     2.1144    21.3903 </r>
       <r>    13.2166     2.1349    21.5766 </r>
       <r>    13.3038     2.1728    21.7662 </r>
       <r>    13.3911     2.2091    21.9590 </r>
       <r>    13.4784     2.2523    22.1556 </r>
       <r>    13.5657     2.2799    22.3546 </r>
       <r>    13.6529     2.2956    22.5549 </r>
       <r>    13.7402     2.3452    22.7596 </r>
       <r>    13.8275     2.4096    22.9699 </r>
       <r>    13.9148     2.4006    23.1794 </r>
       <r>    14.0020     2.3010    23.3802 </r>
       <r>    14.0893     2.2063    23.5728 </r>
       <r>    14.1766     2.1946    23.7643 </r>
       <r>    14.2639     2.2282    23.9588 </r>
       <r>    14.3511     2.2236    24.1529 </r>
       <r>    14.4384     2.1836    24.3434 </r>
       <r>    14.5257     2.1439    24.5305 </r>
       <r>    14.6130     2.0764    24.7118 </r>
       <r>    14.7002     2.0003    24.8863 </r>
       <r>    14.7875     1.9968    25.0606 </r>
       <r>    14.8748     2.0476    25.2393 </r>
       <r>    14.9621     2.0583    25.4190 </r>
       <r>    15.0493     1.9963    25.5932 </r>
       <r>    15.1366     1.8800    25.7573 </r>
       <r>    15.2239     1.7102    25.9065 </r>
       <r>    15.3112     1.5232    26.0395 </r>
       <r>    15.3984     1.4216    26.1635 </r>
       <r>    15.4857     1.4494    26.2900 </r>
       <r>    15.5730     1.5254    26.4232 </r>
       <r>    15.6603     1.5276    26.5565 </r>
       <r>    15.7475     1.4009    26.6787 </r>
       <r>    15.8348     1.1988    26.7834 </r>
       <r>    15.9221     1.0215    26.8725 </r>
       <r>    16.0094     0.9259    26.9533 </r>
       <r>    16.0966     0.8922    27.0312 </r>
       <r>    16.1839     0.8630    27.1065 </r>
       <r>    16.2712     0.8174    27.1778 </r>
       <r>    16.3585     0.7758    27.2455 </r>
       <r>    16.4457     0.7455    27.3106 </r>
       <r>    16.5330     0.7124    27.3728 </r>
       <r>    16.6203     0.6630    27.4307 </r>
       <r>    16.7076     0.5980    27.4828 </r>
       <r>    16.7948     0.5338    27.5294 </r>
       <r>    16.8821     0.4806    27.5714 </r>
       <r>    16.9694     0.4327    27.6091 </r>
       <r>    17.0567     0.3949    27.6436 </r>
       <r>    17.1439     0.3884    27.6775 </r>
       <r>    17.2312     0.4092    27.7132 </r>
       <r>    17.3185     0.4176    27.7497 </r>
       <r>    17.4058     0.3887    27.7836 </r>
       <r>    17.4930     0.3358    27.8129 </r>
       <r>    17.5803     0.2815    27.8375 </r>
       <r>    17.6676     0.2385    27.8583 </r>
       <r>    17.7549     0.2112    27.8767 </r>
       <r>    17.8421     0.1946    27.8937 </r>
       <r>    17.9294     0.1800    27.9094 </r>
       <r>    18.0167     0.1617    27.9235 </r>
       <r>    18.1040     0.1393    27.9357 </r>
       <r>    18.1912     0.1214    27.9463 </r>
       <r>    18.2785     0.1105    27.9559 </r>
       <r>    18.3658     0.0973    27.9644 </r>
       <r>    18.4531     0.0812    27.9715 </r>
       <r>    18.5403     0.0701    27.9776 </r>
       <r>    18.6276     0.0611    27.9829 </r>
       <r>    18.7149     0.0495    27.9873 </r>
       <r>    18.8022     0.0404    27.9908 </r>
       <r>    18.8894     0.0365    27.9940 </r>
       <r>    18.9767     0.0323    27.9968 </r>
       <r>    19.0640     0.0234    27.9988 </r>
       <r>    19.1513     0.0121    27.9999 </r>
       <r>    19.2385     0.0033    28.0002 </r>
       <r>    19.3258    -0.0005    28.0001 </r>
       <r>    19.4131    -0.0009    28.0000 </r>
       <r>    19.5003    -0.0004    28.0000 </r>
       <r>    19.5876    -0.0001    28.0000 </r>
       <r>    19.6749    -0.0000    28.0000 </r>
       <r>    19.7622    -0.0000    28.0000 </r>
       <r>    19.8494    -0.0000    28.0000 </r>
       <r>    19.9367    -0.0000    28.0000 </r>
       <r>    20.0240    -0.0000    28.0000 </r>
       <r>    20.1113    -0.0000    28.0000 </r>
       <r>    20.1985    -0.0000    28.0000 </r>
       <r>    20.2858    -0.0000    28.0000 </r>
       <r>    20.3731    -0.0000    28.0000 </r>
       <r>    20.4604     0.0000    28.0000 </r>
       <r>    20.5476     0.0000    28.0000 </r>
       <r>    20.6349     0.0000    28.0000 </r>
       <r>    20.7222     0.0000    28.0000 </r>
       <r>    20.8095     0.0000    28.0000 </r>
       <r>    20.8967     0.0000    28.0000 </r>
       <r>    20.9840     0.0000    28.0000 </r>
       <r>    21.0713     0.0000    28.0000 </r>
      </set>
     </set>
    </array>
   </total>
  </dos>
 </calculation>
 <structure name="finalpos" >
  <crystal>
   <varray name="basis" >
    <v>       4.03892969       0.00000000       0.00000000 </v>
    <v>       0.04038930       4.03872774       0.00000000 </v>
    <v>       0.00000000       0.00000000       4.03892969 </v>
   </varray>
   <i name="volume">     65.88357610 </i>
   <varray name="rec_basis" >
    <v>       0.24759035      -0.00247603      -0.00000000 </v>
    <v>       0.00000000       0.24760273      -0.00000000 </v>
    <v>       0.00000000       0.00000000       0.24759035 </v>
   </varray>
  </crystal>
  <varray name="positions" >
   <v>       0.00000000       0.00000000       0.00000000 </v>
   <v>       0.00000000       0.50000000       0.50000000 </v>
   <v>       0.50000000       0.00000000       0.50000000 </v>
   <v>       0.50000000       0.50000000       0.00000000 </v>
  </varray>
 </structure>
</modeling>
