 running   14 mpi-ranks, with    2 threads/rank, on    1 nodes
 distrk:  each k-point on   14 cores,    1 groups
 distr:  one band on    1 cores,   14 groups
 vasp.6.4.2 20Jul23 (build Apr 22 2024 22:35:45) complex                         
 POSCAR found type information on POSCAR Al
 POSCAR found :  1 types and       4 ions
 scaLAPACK will be used
 -----------------------------------------------------------------------------
|                                                                             |
|               ----> ADVICE to this user running VASP <----                  |
|                                                                             |
|     You have a (more or less) 'small supercell' and for smaller cells       |
|     it is recommended to use the reciprocal-space projection scheme!        |
|     The real-space optimization is not efficient for small cells and it     |
|     is also less accurate ...                                               |
|     Therefore, set LREAL=.FALSE. in the INCAR file.                         |
|                                                                             |
 -----------------------------------------------------------------------------

 LDA part: xc-table for Pade appr. of Perdew
 POSCAR, INCAR and KPOINTS ok, starting setup
 FFT: planning ... GRIDC
 FFT: planning ... GRID_SOFT
 FFT: planning ... GRID
 WAVECAR not read
 entering main loop
       N       E                     dE             d eps       ncg     rms          rms(c)
DAV:   1    -0.269006734324E+01   -0.26901E+01   -0.37211E+03  6160   0.516E+02
DAV:   2    -0.148586078695E+02   -0.12169E+02   -0.11905E+02  8862   0.461E+01
DAV:   3    -0.149345618231E+02   -0.75954E-01   -0.75691E-01  8330   0.495E+00
DAV:   4    -0.149347302135E+02   -0.16839E-03   -0.16839E-03 10122   0.234E-01
DAV:   5    -0.149347302947E+02   -0.81245E-07   -0.80172E-07  8302   0.417E-03    0.231E+00
RMM:   6    -0.148855266989E+02    0.49204E-01   -0.69077E-03  6160   0.484E-01    0.136E+00
RMM:   7    -0.148497581954E+02    0.35769E-01   -0.20645E-02  6160   0.804E-01    0.215E-01
RMM:   8    -0.148497314064E+02    0.26789E-04   -0.54191E-04  6160   0.155E-01    0.283E-02
RMM:   9    -0.148497367208E+02   -0.53143E-05   -0.98867E-05  6160   0.656E-02    0.198E-02
RMM:  10    -0.148497385728E+02   -0.18520E-05   -0.24562E-05  6160   0.362E-02    0.148E-02
RMM:  11    -0.148497334341E+02    0.51387E-05   -0.55635E-06  6159   0.141E-02    0.166E-03
RMM:  12    -0.148497336702E+02   -0.23609E-06   -0.15061E-06  4761   0.931E-03
   1 F= -.14849734E+02 E0= -.14849103E+02  d E =-.148497E+02
 curvature:   0.00 expect dE= 0.000E+00 dE for cont linesearch  0.000E+00
 trial: gam= 0.00000 g(F)=  0.258E-64 g(S)=  0.202E-32 ort = 0.000E+00 (trialstep = 0.100E+01)
 search vector abs. value=  0.100E-09
 reached required accuracy - stopping structural energy minimisation
