<?xml version="1.0" encoding="ISO-8859-1"?>
<modeling>
 <generator>
  <i name="program" type="string">vasp </i>
  <i name="version" type="string">6.4.2  </i>
  <i name="subversion" type="string">20Jul23 (build Apr 22 2024 22:35:45) complex                          parallel </i>
  <i name="platform" type="string">LinuxGNU </i>
  <i name="date" type="string">2024 05 26 </i>
  <i name="time" type="string">15:52:47 </i>
 </generator>
 <incar>
  <i type="string" name="SYSTEM">Al fcc relaxation</i>
  <i type="string" name="PREC">Accurate</i>
  <i type="string" name="ALGO">Fast</i>
  <i type="int" name="NELM">    60</i>
  <i type="int" name="NELMIN">     4</i>
  <i type="int" name="IBRION">     2</i>
  <i name="EDIFF">      0.00000100</i>
  <i type="int" name="NSW">   100</i>
  <i type="int" name="ISIF">     4</i>
  <i name="ENCUT">    400.00000000</i>
  <i type="string" name="LREAL">Auto</i>
  <i type="int" name="ISMEAR">     1</i>
  <i name="SIGMA">      0.20000000</i>
  <i name="KSPACING">      0.08000000</i>
  <i type="logical" name="LWAVE"> F  </i>
  <i type="logical" name="LCHARG"> F  </i>
 </incar>
 <primitive_cell>
  <structure name="primitive_cell" >
   <crystal>
    <varray name="basis" >
     <v>       2.08465340      -2.08465340       0.00000000 </v>
     <v>       2.08465340       0.00000000       2.08465340 </v>
     <v>       0.00000000      -2.08465340       2.08465340 </v>
    </varray>
    <i name="volume">     18.11888939 </i>
    <varray name="rec_basis" >
     <v>       0.23984802      -0.23984802      -0.23984802 </v>
     <v>       0.23984802       0.23984802       0.23984802 </v>
     <v>      -0.23984802      -0.23984802       0.23984802 </v>
    </varray>
   </crystal>
   <varray name="positions" >
    <v>       0.00000000       0.00000000       0.00000000 </v>
   </varray>
  </structure>
  <varray name="primitive_index" >
   <v type="int" >        1 </v>
  </varray>
 </primitive_cell>
 <kpoints>
  <generation param="Monkhorst-Pack">
   <v type="int" name="divisions">      19       19       19 </v>
   <v name="usershift">      0.00000000       0.00000000       0.00000000 </v>
   <v name="genvec1">      0.05263158       0.00000000       0.00000000 </v>
   <v name="genvec2">      0.00000000       0.05263158       0.00000000 </v>
   <v name="genvec3">     -0.00000000      -0.00000000       0.05263158 </v>
   <v name="shift">      0.00000000       0.00000000       0.00000000 </v>
  </generation>
  <varray name="kpointlist" >
   <v>       0.00000000       0.00000000       0.00000000 </v>
   <v>       0.05263158       0.00000000       0.00000000 </v>
   <v>       0.10526316       0.00000000       0.00000000 </v>
   <v>       0.15789474       0.00000000       0.00000000 </v>
   <v>       0.21052632       0.00000000       0.00000000 </v>
   <v>       0.26315789       0.00000000       0.00000000 </v>
   <v>       0.31578947       0.00000000       0.00000000 </v>
   <v>       0.36842105       0.00000000       0.00000000 </v>
   <v>       0.42105263       0.00000000       0.00000000 </v>
   <v>       0.47368421       0.00000000       0.00000000 </v>
   <v>       0.05263158       0.05263158       0.00000000 </v>
   <v>       0.10526316       0.05263158       0.00000000 </v>
   <v>       0.15789474       0.05263158       0.00000000 </v>
   <v>       0.21052632       0.05263158       0.00000000 </v>
   <v>       0.26315789       0.05263158       0.00000000 </v>
   <v>       0.31578947       0.05263158       0.00000000 </v>
   <v>       0.36842105       0.05263158       0.00000000 </v>
   <v>       0.42105263       0.05263158       0.00000000 </v>
   <v>       0.47368421       0.05263158       0.00000000 </v>
   <v>       0.10526316       0.10526316       0.00000000 </v>
   <v>       0.15789474       0.10526316       0.00000000 </v>
   <v>       0.21052632       0.10526316       0.00000000 </v>
   <v>       0.26315789       0.10526316       0.00000000 </v>
   <v>       0.31578947       0.10526316       0.00000000 </v>
   <v>       0.36842105       0.10526316       0.00000000 </v>
   <v>       0.42105263       0.10526316       0.00000000 </v>
   <v>       0.47368421       0.10526316       0.00000000 </v>
   <v>       0.15789474       0.15789474       0.00000000 </v>
   <v>       0.21052632       0.15789474       0.00000000 </v>
   <v>       0.26315789       0.15789474       0.00000000 </v>
   <v>       0.31578947       0.15789474       0.00000000 </v>
   <v>       0.36842105       0.15789474       0.00000000 </v>
   <v>       0.42105263       0.15789474       0.00000000 </v>
   <v>       0.47368421       0.15789474       0.00000000 </v>
   <v>       0.21052632       0.21052632       0.00000000 </v>
   <v>       0.26315789       0.21052632       0.00000000 </v>
   <v>       0.31578947       0.21052632       0.00000000 </v>
   <v>       0.36842105       0.21052632       0.00000000 </v>
   <v>       0.42105263       0.21052632       0.00000000 </v>
   <v>       0.47368421       0.21052632       0.00000000 </v>
   <v>       0.26315789       0.26315789       0.00000000 </v>
   <v>       0.31578947       0.26315789       0.00000000 </v>
   <v>       0.36842105       0.26315789       0.00000000 </v>
   <v>       0.42105263       0.26315789       0.00000000 </v>
   <v>       0.47368421       0.26315789       0.00000000 </v>
   <v>       0.31578947       0.31578947       0.00000000 </v>
   <v>       0.36842105       0.31578947       0.00000000 </v>
   <v>       0.42105263       0.31578947       0.00000000 </v>
   <v>       0.47368421       0.31578947       0.00000000 </v>
   <v>       0.36842105       0.36842105       0.00000000 </v>
   <v>       0.42105263       0.36842105       0.00000000 </v>
   <v>       0.47368421       0.36842105       0.00000000 </v>
   <v>       0.42105263       0.42105263       0.00000000 </v>
   <v>       0.47368421       0.42105263       0.00000000 </v>
   <v>       0.47368421       0.47368421       0.00000000 </v>
   <v>       0.05263158       0.05263158       0.05263158 </v>
   <v>       0.10526316       0.05263158       0.05263158 </v>
   <v>       0.15789474       0.05263158       0.05263158 </v>
   <v>       0.21052632       0.05263158       0.05263158 </v>
   <v>       0.26315789       0.05263158       0.05263158 </v>
   <v>       0.31578947       0.05263158       0.05263158 </v>
   <v>       0.36842105       0.05263158       0.05263158 </v>
   <v>       0.42105263       0.05263158       0.05263158 </v>
   <v>       0.47368421       0.05263158       0.05263158 </v>
   <v>       0.10526316       0.10526316       0.05263158 </v>
   <v>       0.15789474       0.10526316       0.05263158 </v>
   <v>       0.21052632       0.10526316       0.05263158 </v>
   <v>       0.26315789       0.10526316       0.05263158 </v>
   <v>       0.31578947       0.10526316       0.05263158 </v>
   <v>       0.36842105       0.10526316       0.05263158 </v>
   <v>       0.42105263       0.10526316       0.05263158 </v>
   <v>       0.47368421       0.10526316       0.05263158 </v>
   <v>       0.15789474       0.15789474       0.05263158 </v>
   <v>       0.21052632       0.15789474       0.05263158 </v>
   <v>       0.26315789       0.15789474       0.05263158 </v>
   <v>       0.31578947       0.15789474       0.05263158 </v>
   <v>       0.36842105       0.15789474       0.05263158 </v>
   <v>       0.42105263       0.15789474       0.05263158 </v>
   <v>       0.47368421       0.15789474       0.05263158 </v>
   <v>       0.21052632       0.21052632       0.05263158 </v>
   <v>       0.26315789       0.21052632       0.05263158 </v>
   <v>       0.31578947       0.21052632       0.05263158 </v>
   <v>       0.36842105       0.21052632       0.05263158 </v>
   <v>       0.42105263       0.21052632       0.05263158 </v>
   <v>       0.47368421       0.21052632       0.05263158 </v>
   <v>       0.26315789       0.26315789       0.05263158 </v>
   <v>       0.31578947       0.26315789       0.05263158 </v>
   <v>       0.36842105       0.26315789       0.05263158 </v>
   <v>       0.42105263       0.26315789       0.05263158 </v>
   <v>       0.47368421       0.26315789       0.05263158 </v>
   <v>       0.31578947       0.31578947       0.05263158 </v>
   <v>       0.36842105       0.31578947       0.05263158 </v>
   <v>       0.42105263       0.31578947       0.05263158 </v>
   <v>       0.47368421       0.31578947       0.05263158 </v>
   <v>       0.36842105       0.36842105       0.05263158 </v>
   <v>       0.42105263       0.36842105       0.05263158 </v>
   <v>       0.47368421       0.36842105       0.05263158 </v>
   <v>       0.42105263       0.42105263       0.05263158 </v>
   <v>       0.47368421       0.42105263       0.05263158 </v>
   <v>       0.47368421       0.47368421       0.05263158 </v>
   <v>       0.10526316       0.10526316       0.10526316 </v>
   <v>       0.15789474       0.10526316       0.10526316 </v>
   <v>       0.21052632       0.10526316       0.10526316 </v>
   <v>       0.26315789       0.10526316       0.10526316 </v>
   <v>       0.31578947       0.10526316       0.10526316 </v>
   <v>       0.36842105       0.10526316       0.10526316 </v>
   <v>       0.42105263       0.10526316       0.10526316 </v>
   <v>       0.47368421       0.10526316       0.10526316 </v>
   <v>       0.15789474       0.15789474       0.10526316 </v>
   <v>       0.21052632       0.15789474       0.10526316 </v>
   <v>       0.26315789       0.15789474       0.10526316 </v>
   <v>       0.31578947       0.15789474       0.10526316 </v>
   <v>       0.36842105       0.15789474       0.10526316 </v>
   <v>       0.42105263       0.15789474       0.10526316 </v>
   <v>       0.47368421       0.15789474       0.10526316 </v>
   <v>       0.21052632       0.21052632       0.10526316 </v>
   <v>       0.26315789       0.21052632       0.10526316 </v>
   <v>       0.31578947       0.21052632       0.10526316 </v>
   <v>       0.36842105       0.21052632       0.10526316 </v>
   <v>       0.42105263       0.21052632       0.10526316 </v>
   <v>       0.47368421       0.21052632       0.10526316 </v>
   <v>       0.26315789       0.26315789       0.10526316 </v>
   <v>       0.31578947       0.26315789       0.10526316 </v>
   <v>       0.36842105       0.26315789       0.10526316 </v>
   <v>       0.42105263       0.26315789       0.10526316 </v>
   <v>       0.47368421       0.26315789       0.10526316 </v>
   <v>       0.31578947       0.31578947       0.10526316 </v>
   <v>       0.36842105       0.31578947       0.10526316 </v>
   <v>       0.42105263       0.31578947       0.10526316 </v>
   <v>       0.47368421       0.31578947       0.10526316 </v>
   <v>       0.36842105       0.36842105       0.10526316 </v>
   <v>       0.42105263       0.36842105       0.10526316 </v>
   <v>       0.47368421       0.36842105       0.10526316 </v>
   <v>       0.42105263       0.42105263       0.10526316 </v>
   <v>       0.47368421       0.42105263       0.10526316 </v>
   <v>       0.47368421       0.47368421       0.10526316 </v>
   <v>       0.15789474       0.15789474       0.15789474 </v>
   <v>       0.21052632       0.15789474       0.15789474 </v>
   <v>       0.26315789       0.15789474       0.15789474 </v>
   <v>       0.31578947       0.15789474       0.15789474 </v>
   <v>       0.36842105       0.15789474       0.15789474 </v>
   <v>       0.42105263       0.15789474       0.15789474 </v>
   <v>       0.47368421       0.15789474       0.15789474 </v>
   <v>       0.21052632       0.21052632       0.15789474 </v>
   <v>       0.26315789       0.21052632       0.15789474 </v>
   <v>       0.31578947       0.21052632       0.15789474 </v>
   <v>       0.36842105       0.21052632       0.15789474 </v>
   <v>       0.42105263       0.21052632       0.15789474 </v>
   <v>       0.47368421       0.21052632       0.15789474 </v>
   <v>       0.26315789       0.26315789       0.15789474 </v>
   <v>       0.31578947       0.26315789       0.15789474 </v>
   <v>       0.36842105       0.26315789       0.15789474 </v>
   <v>       0.42105263       0.26315789       0.15789474 </v>
   <v>       0.47368421       0.26315789       0.15789474 </v>
   <v>       0.31578947       0.31578947       0.15789474 </v>
   <v>       0.36842105       0.31578947       0.15789474 </v>
   <v>       0.42105263       0.31578947       0.15789474 </v>
   <v>       0.47368421       0.31578947       0.15789474 </v>
   <v>       0.36842105       0.36842105       0.15789474 </v>
   <v>       0.42105263       0.36842105       0.15789474 </v>
   <v>       0.47368421       0.36842105       0.15789474 </v>
   <v>       0.42105263       0.42105263       0.15789474 </v>
   <v>       0.47368421       0.42105263       0.15789474 </v>
   <v>       0.47368421       0.47368421       0.15789474 </v>
   <v>       0.21052632       0.21052632       0.21052632 </v>
   <v>       0.26315789       0.21052632       0.21052632 </v>
   <v>       0.31578947       0.21052632       0.21052632 </v>
   <v>       0.36842105       0.21052632       0.21052632 </v>
   <v>       0.42105263       0.21052632       0.21052632 </v>
   <v>       0.47368421       0.21052632       0.21052632 </v>
   <v>       0.26315789       0.26315789       0.21052632 </v>
   <v>       0.31578947       0.26315789       0.21052632 </v>
   <v>       0.36842105       0.26315789       0.21052632 </v>
   <v>       0.42105263       0.26315789       0.21052632 </v>
   <v>       0.47368421       0.26315789       0.21052632 </v>
   <v>       0.31578947       0.31578947       0.21052632 </v>
   <v>       0.36842105       0.31578947       0.21052632 </v>
   <v>       0.42105263       0.31578947       0.21052632 </v>
   <v>       0.47368421       0.31578947       0.21052632 </v>
   <v>       0.36842105       0.36842105       0.21052632 </v>
   <v>       0.42105263       0.36842105       0.21052632 </v>
   <v>       0.47368421       0.36842105       0.21052632 </v>
   <v>       0.42105263       0.42105263       0.21052632 </v>
   <v>       0.47368421       0.42105263       0.21052632 </v>
   <v>       0.47368421       0.47368421       0.21052632 </v>
   <v>       0.26315789       0.26315789       0.26315789 </v>
   <v>       0.31578947       0.26315789       0.26315789 </v>
   <v>       0.36842105       0.26315789       0.26315789 </v>
   <v>       0.42105263       0.26315789       0.26315789 </v>
   <v>       0.47368421       0.26315789       0.26315789 </v>
   <v>       0.31578947       0.31578947       0.26315789 </v>
   <v>       0.36842105       0.31578947       0.26315789 </v>
   <v>       0.42105263       0.31578947       0.26315789 </v>
   <v>       0.47368421       0.31578947       0.26315789 </v>
   <v>       0.36842105       0.36842105       0.26315789 </v>
   <v>       0.42105263       0.36842105       0.26315789 </v>
   <v>       0.47368421       0.36842105       0.26315789 </v>
   <v>       0.42105263       0.42105263       0.26315789 </v>
   <v>       0.47368421       0.42105263       0.26315789 </v>
   <v>       0.47368421       0.47368421       0.26315789 </v>
   <v>       0.31578947       0.31578947       0.31578947 </v>
   <v>       0.36842105       0.31578947       0.31578947 </v>
   <v>       0.42105263       0.31578947       0.31578947 </v>
   <v>       0.47368421       0.31578947       0.31578947 </v>
   <v>       0.36842105       0.36842105       0.31578947 </v>
   <v>       0.42105263       0.36842105       0.31578947 </v>
   <v>       0.47368421       0.36842105       0.31578947 </v>
   <v>       0.42105263       0.42105263       0.31578947 </v>
   <v>       0.47368421       0.42105263       0.31578947 </v>
   <v>       0.47368421       0.47368421       0.31578947 </v>
   <v>       0.36842105       0.36842105       0.36842105 </v>
   <v>       0.42105263       0.36842105       0.36842105 </v>
   <v>       0.47368421       0.36842105       0.36842105 </v>
   <v>       0.42105263       0.42105263       0.36842105 </v>
   <v>       0.47368421       0.42105263       0.36842105 </v>
   <v>       0.47368421       0.47368421       0.36842105 </v>
   <v>       0.42105263       0.42105263       0.42105263 </v>
   <v>       0.47368421       0.42105263       0.42105263 </v>
   <v>       0.47368421       0.47368421       0.42105263 </v>
   <v>       0.47368421       0.47368421       0.47368421 </v>
  </varray>
  <varray name="weights" >
   <v>       0.00014579 </v>
   <v>       0.00087476 </v>
   <v>       0.00087476 </v>
   <v>       0.00087476 </v>
   <v>       0.00087476 </v>
   <v>       0.00087476 </v>
   <v>       0.00087476 </v>
   <v>       0.00087476 </v>
   <v>       0.00087476 </v>
   <v>       0.00087476 </v>
   <v>       0.00174953 </v>
   <v>       0.00349905 </v>
   <v>       0.00349905 </v>
   <v>       0.00349905 </v>
   <v>       0.00349905 </v>
   <v>       0.00349905 </v>
   <v>       0.00349905 </v>
   <v>       0.00349905 </v>
   <v>       0.00349905 </v>
   <v>       0.00174953 </v>
   <v>       0.00349905 </v>
   <v>       0.00349905 </v>
   <v>       0.00349905 </v>
   <v>       0.00349905 </v>
   <v>       0.00349905 </v>
   <v>       0.00349905 </v>
   <v>       0.00349905 </v>
   <v>       0.00174953 </v>
   <v>       0.00349905 </v>
   <v>       0.00349905 </v>
   <v>       0.00349905 </v>
   <v>       0.00349905 </v>
   <v>       0.00349905 </v>
   <v>       0.00349905 </v>
   <v>       0.00174953 </v>
   <v>       0.00349905 </v>
   <v>       0.00349905 </v>
   <v>       0.00349905 </v>
   <v>       0.00349905 </v>
   <v>       0.00349905 </v>
   <v>       0.00174953 </v>
   <v>       0.00349905 </v>
   <v>       0.00349905 </v>
   <v>       0.00349905 </v>
   <v>       0.00349905 </v>
   <v>       0.00174953 </v>
   <v>       0.00349905 </v>
   <v>       0.00349905 </v>
   <v>       0.00349905 </v>
   <v>       0.00174953 </v>
   <v>       0.00349905 </v>
   <v>       0.00349905 </v>
   <v>       0.00174953 </v>
   <v>       0.00349905 </v>
   <v>       0.00174953 </v>
   <v>       0.00116635 </v>
   <v>       0.00349905 </v>
   <v>       0.00349905 </v>
   <v>       0.00349905 </v>
   <v>       0.00349905 </v>
   <v>       0.00349905 </v>
   <v>       0.00349905 </v>
   <v>       0.00349905 </v>
   <v>       0.00349905 </v>
   <v>       0.00349905 </v>
   <v>       0.00699810 </v>
   <v>       0.00699810 </v>
   <v>       0.00699810 </v>
   <v>       0.00699810 </v>
   <v>       0.00699810 </v>
   <v>       0.00699810 </v>
   <v>       0.00699810 </v>
   <v>       0.00349905 </v>
   <v>       0.00699810 </v>
   <v>       0.00699810 </v>
   <v>       0.00699810 </v>
   <v>       0.00699810 </v>
   <v>       0.00699810 </v>
   <v>       0.00699810 </v>
   <v>       0.00349905 </v>
   <v>       0.00699810 </v>
   <v>       0.00699810 </v>
   <v>       0.00699810 </v>
   <v>       0.00699810 </v>
   <v>       0.00699810 </v>
   <v>       0.00349905 </v>
   <v>       0.00699810 </v>
   <v>       0.00699810 </v>
   <v>       0.00699810 </v>
   <v>       0.00699810 </v>
   <v>       0.00349905 </v>
   <v>       0.00699810 </v>
   <v>       0.00699810 </v>
   <v>       0.00699810 </v>
   <v>       0.00349905 </v>
   <v>       0.00699810 </v>
   <v>       0.00699810 </v>
   <v>       0.00349905 </v>
   <v>       0.00699810 </v>
   <v>       0.00349905 </v>
   <v>       0.00116635 </v>
   <v>       0.00349905 </v>
   <v>       0.00349905 </v>
   <v>       0.00349905 </v>
   <v>       0.00349905 </v>
   <v>       0.00349905 </v>
   <v>       0.00349905 </v>
   <v>       0.00349905 </v>
   <v>       0.00349905 </v>
   <v>       0.00699810 </v>
   <v>       0.00699810 </v>
   <v>       0.00699810 </v>
   <v>       0.00699810 </v>
   <v>       0.00699810 </v>
   <v>       0.00699810 </v>
   <v>       0.00349905 </v>
   <v>       0.00699810 </v>
   <v>       0.00699810 </v>
   <v>       0.00699810 </v>
   <v>       0.00699810 </v>
   <v>       0.00699810 </v>
   <v>       0.00349905 </v>
   <v>       0.00699810 </v>
   <v>       0.00699810 </v>
   <v>       0.00699810 </v>
   <v>       0.00699810 </v>
   <v>       0.00349905 </v>
   <v>       0.00699810 </v>
   <v>       0.00699810 </v>
   <v>       0.00699810 </v>
   <v>       0.00349905 </v>
   <v>       0.00699810 </v>
   <v>       0.00699810 </v>
   <v>       0.00349905 </v>
   <v>       0.00699810 </v>
   <v>       0.00349905 </v>
   <v>       0.00116635 </v>
   <v>       0.00349905 </v>
   <v>       0.00349905 </v>
   <v>       0.00349905 </v>
   <v>       0.00349905 </v>
   <v>       0.00349905 </v>
   <v>       0.00349905 </v>
   <v>       0.00349905 </v>
   <v>       0.00699810 </v>
   <v>       0.00699810 </v>
   <v>       0.00699810 </v>
   <v>       0.00699810 </v>
   <v>       0.00699810 </v>
   <v>       0.00349905 </v>
   <v>       0.00699810 </v>
   <v>       0.00699810 </v>
   <v>       0.00699810 </v>
   <v>       0.00699810 </v>
   <v>       0.00349905 </v>
   <v>       0.00699810 </v>
   <v>       0.00699810 </v>
   <v>       0.00699810 </v>
   <v>       0.00349905 </v>
   <v>       0.00699810 </v>
   <v>       0.00699810 </v>
   <v>       0.00349905 </v>
   <v>       0.00699810 </v>
   <v>       0.00349905 </v>
   <v>       0.00116635 </v>
   <v>       0.00349905 </v>
   <v>       0.00349905 </v>
   <v>       0.00349905 </v>
   <v>       0.00349905 </v>
   <v>       0.00349905 </v>
   <v>       0.00349905 </v>
   <v>       0.00699810 </v>
   <v>       0.00699810 </v>
   <v>       0.00699810 </v>
   <v>       0.00699810 </v>
   <v>       0.00349905 </v>
   <v>       0.00699810 </v>
   <v>       0.00699810 </v>
   <v>       0.00699810 </v>
   <v>       0.00349905 </v>
   <v>       0.00699810 </v>
   <v>       0.00699810 </v>
   <v>       0.00349905 </v>
   <v>       0.00699810 </v>
   <v>       0.00349905 </v>
   <v>       0.00116635 </v>
   <v>       0.00349905 </v>
   <v>       0.00349905 </v>
   <v>       0.00349905 </v>
   <v>       0.00349905 </v>
   <v>       0.00349905 </v>
   <v>       0.00699810 </v>
   <v>       0.00699810 </v>
   <v>       0.00699810 </v>
   <v>       0.00349905 </v>
   <v>       0.00699810 </v>
   <v>       0.00699810 </v>
   <v>       0.00349905 </v>
   <v>       0.00699810 </v>
   <v>       0.00349905 </v>
   <v>       0.00116635 </v>
   <v>       0.00349905 </v>
   <v>       0.00349905 </v>
   <v>       0.00349905 </v>
   <v>       0.00349905 </v>
   <v>       0.00699810 </v>
   <v>       0.00699810 </v>
   <v>       0.00349905 </v>
   <v>       0.00699810 </v>
   <v>       0.00349905 </v>
   <v>       0.00116635 </v>
   <v>       0.00349905 </v>
   <v>       0.00349905 </v>
   <v>       0.00349905 </v>
   <v>       0.00699810 </v>
   <v>       0.00349905 </v>
   <v>       0.00116635 </v>
   <v>       0.00349905 </v>
   <v>       0.00349905 </v>
   <v>       0.00116635 </v>
  </varray>
 </kpoints>
 <parameters>
  <separator name="general" >
   <i type="string" name="SYSTEM">Al fcc relaxation</i>
   <i type="logical" name="LCOMPAT"> F  </i>
  </separator>
  <separator name="electronic" >
   <i type="string" name="PREC">accura</i>
   <i name="ENMAX">    400.00000000</i>
   <i name="ENAUG">    291.05200000</i>
   <i name="EDIFF">      0.00000100</i>
   <i type="int" name="IALGO">    68</i>
   <i type="int" name="IWAVPR">    11</i>
   <i type="int" name="NBANDS">    14</i>
   <i type="int" name="NBANDSLOW">    -1</i>
   <i type="int" name="NBANDSHIGH">    -1</i>
   <i name="NELECT">     12.00000000</i>
   <i type="int" name="TURBO">     0</i>
   <i type="int" name="IRESTART">     0</i>
   <i type="int" name="NREBOOT">     0</i>
   <i type="int" name="NMIN">     0</i>
   <i name="EREF">      0.00000000</i>
   <separator name="electronic smearing" >
    <i type="int" name="ISMEAR">     1</i>
    <i name="SIGMA">      0.20000000</i>
    <i name="KSPACING">      0.08000000</i>
    <i type="logical" name="KGAMMA"> T  </i>
    <i type="logical" name="KBLOWUP"> T  </i>
   </separator>
   <separator name="electronic projectors" >
    <i type="logical" name="LREAL"> T  </i>
    <v name="ROPT">     -0.00025000</v>
    <i type="int" name="LMAXPAW">  -100</i>
    <i type="int" name="LMAXMIX">     2</i>
    <i type="logical" name="NLSPLINE"> F  </i>
   </separator>
   <separator name="electronic startup" >
    <i type="int" name="ISTART">     0</i>
    <i type="int" name="ICHARG">     2</i>
    <i type="int" name="INIWAV">     1</i>
   </separator>
   <separator name="electronic spin" >
    <i type="int" name="ISPIN">     1</i>
    <i type="logical" name="LNONCOLLINEAR"> F  </i>
    <v name="MAGMOM">      1.00000000      1.00000000      1.00000000      1.00000000</v>
    <i name="NUPDOWN">     -1.00000000</i>
    <i type="logical" name="LSORBIT"> F  </i>
    <v name="SAXIS">      0.00000000      0.00000000      1.00000000</v>
    <i type="logical" name="LSPIRAL"> F  </i>
    <v name="QSPIRAL">      0.00000000      0.00000000      0.00000000</v>
    <i type="logical" name="LZEROZ"> F  </i>
   </separator>
   <separator name="electronic exchange-correlation" >
    <i type="logical" name="LASPH"> F  </i>
    <i type="logical" name="LMETAGGA"> F  </i>
   </separator>
   <separator name="electronic convergence" >
    <i type="int" name="NELM">    60</i>
    <i type="int" name="NELMDL">    -5</i>
    <i type="int" name="NELMIN">     4</i>
    <i name="ENINI">    400.00000000</i>
    <separator name="electronic convergence detail" >
     <i type="logical" name="LDIAG"> T  </i>
     <i type="logical" name="LSUBROT"> F  </i>
     <i name="WEIMIN">      0.00100000</i>
     <i name="EBREAK">      0.00000002</i>
     <i name="DEPER">      0.30000000</i>
     <i type="int" name="NRMM">     4</i>
     <i name="TIME">      0.40000000</i>
    </separator>
   </separator>
   <separator name="electronic mixer" >
    <i name="AMIX">      0.40000000</i>
    <i name="BMIX">      1.00000000</i>
    <i name="AMIN">      0.10000000</i>
    <i name="AMIX_MAG">      1.60000000</i>
    <i name="BMIX_MAG">      1.00000000</i>
    <separator name="electronic mixer details" >
     <i type="int" name="IMIX">     4</i>
     <i type="logical" name="MIXFIRST"> F  </i>
     <i type="int" name="MAXMIX">   -45</i>
     <i name="WC">    100.00000000</i>
     <i type="int" name="INIMIX">     1</i>
     <i type="int" name="MIXPRE">     1</i>
     <i type="int" name="MREMOVE">     5</i>
    </separator>
   </separator>
   <separator name="electronic dipolcorrection" >
    <i type="logical" name="LDIPOL"> F  </i>
    <i type="logical" name="LMONO"> F  </i>
    <i type="int" name="IDIPOL">     0</i>
    <i name="EPSILON">      1.00000000</i>
    <v name="DIPOL">   -100.00000000   -100.00000000   -100.00000000</v>
    <i name="EFIELD">      0.00000000</i>
   </separator>
  </separator>
  <separator name="grids" >
   <i type="int" name="NGX">    28</i>
   <i type="int" name="NGY">    28</i>
   <i type="int" name="NGZ">    28</i>
   <i type="int" name="NGXF">    56</i>
   <i type="int" name="NGYF">    56</i>
   <i type="int" name="NGZF">    56</i>
   <i type="logical" name="ADDGRID"> F  </i>
  </separator>
  <separator name="ionic" >
   <i type="int" name="NSW">   100</i>
   <i type="int" name="IBRION">     2</i>
   <i type="int" name="MDALGO">     0</i>
   <i type="int" name="ISIF">     4</i>
   <i name="PSTRESS">      0.00000000</i>
   <i name="EDIFFG">      0.00001000</i>
   <i type="int" name="NFREE">     1</i>
   <i name="POTIM">      0.50000000</i>
   <i name="SMASS">     -3.00000000</i>
   <i name="SCALEE">      1.00000000</i>
  </separator>
  <separator name="ionic md" >
   <i name="TEBEG">      0.00010000</i>
   <i name="TEEND">      0.00010000</i>
   <i type="int" name="NBLOCK">     1</i>
   <i type="int" name="KBLOCK">   100</i>
   <i type="int" name="NPACO">   256</i>
   <i name="APACO">     10.00000000</i>
  </separator>
  <separator name="symmetry" >
   <i type="int" name="ISYM">     2</i>
   <i name="SYMPREC">      0.00001000</i>
  </separator>
  <separator name="dos" >
   <i type="int" name="LORBIT">     0</i>
   <v name="RWIGS">     -1.00000000</v>
   <i type="int" name="NEDOS">   301</i>
   <i name="EMIN">     10.00000000</i>
   <i name="EMAX">    -10.00000000</i>
   <i name="EFERMI">      0.00000000</i>
  </separator>
  <separator name="writing" >
   <i type="int" name="NWRITE">     2</i>
   <i type="logical" name="LWAVE"> F  </i>
   <i type="logical" name="LDOWNSAMPLE"> F  </i>
   <i type="logical" name="LCHARG"> F  </i>
   <i type="logical" name="LPARD"> F  </i>
   <i type="logical" name="LVTOT"> F  </i>
   <i type="logical" name="LVHAR"> F  </i>
   <i type="logical" name="LELF"> F  </i>
   <i type="logical" name="LOPTICS"> F  </i>
   <v name="STM">      0.00000000      0.00000000      0.00000000      0.00000000      0.00000000      0.00000000      0.00000000</v>
  </separator>
  <separator name="performance" >
   <i type="int" name="NPAR">    14</i>
   <i type="int" name="NSIM">     4</i>
   <i type="int" name="NBLK">    -1</i>
   <i type="logical" name="LPLANE"> T  </i>
   <i type="logical" name="LSCALAPACK"> T  </i>
   <i type="logical" name="LSCAAWARE"> F  </i>
   <i type="logical" name="LSCALU"> F  </i>
   <i type="logical" name="LASYNC"> F  </i>
   <i type="logical" name="LORBITALREAL"> F  </i>
  </separator>
  <separator name="miscellaneous" >
   <i type="int" name="IDIOT">     3</i>
   <i type="int" name="PHON_NSTRUCT">    -1</i>
   <i type="logical" name="LMUSIC"> F  </i>
   <v name="POMASS">     26.98100000</v>
   <v name="DARWINR">      0.00000000</v>
   <v name="DARWINV">      1.00000000</v>
   <i type="logical" name="LCORR"> T  </i>
  </separator>
  <i type="logical" name="GGA_COMPAT"> T  </i>
  <i type="logical" name="LBERRY"> F  </i>
  <i type="int" name="ICORELEVEL">     0</i>
  <i type="logical" name="LDAU"> F  </i>
  <i type="int" name="I_CONSTRAINED_M">     0</i>
  <separator name="electronic exchange-correlation" >
   <i type="string" name="GGA">--</i>
   <i type="int" name="VOSKOWN">     0</i>
   <i type="logical" name="LHFCALC"> F  </i>
   <i type="string" name="PRECFOCK"></i>
   <i type="logical" name="LSYMGRAD"> F  </i>
   <i type="logical" name="LHFONE"> F  </i>
   <i type="logical" name="LRHFCALC"> F  </i>
   <i type="logical" name="LTHOMAS"> F  </i>
   <i type="logical" name="LMODELHF"> F  </i>
   <i type="logical" name="LFOCKACE"> F  </i>
   <i name="ENCUT4O">     -1.00000000</i>
   <i type="int" name="EXXOEP">     0</i>
   <i type="int" name="FOURORBIT">     0</i>
   <i name="AEXX">      0.00000000</i>
   <i name="HFALPHA">      0.00000000</i>
   <i name="MCALPHA">      0.00000000</i>
   <i name="ALDAX">      1.00000000</i>
   <i name="AGGAX">      1.00000000</i>
   <i name="ALDAC">      1.00000000</i>
   <i name="AGGAC">      1.00000000</i>
   <i type="int" name="NKREDX">     1</i>
   <i type="int" name="NKREDY">     1</i>
   <i type="int" name="NKREDZ">     1</i>
   <i type="logical" name="SHIFTRED"> F  </i>
   <i type="logical" name="ODDONLY"> F  </i>
   <i type="logical" name="EVENONLY"> F  </i>
   <i type="int" name="LMAXFOCK">     0</i>
   <i type="int" name="NMAXFOCKAE">     0</i>
   <i type="logical" name="LFOCKAEDFT"> F  </i>
   <i name="HFSCREEN">      0.00000000</i>
   <i name="HFSCREENC">      0.00000000</i>
   <i type="int" name="NBANDSGWLOW">     0</i>
  </separator>
  <separator name="vdW DFT" >
   <i type="logical" name="LUSE_VDW"> F  </i>
   <i type="int" name="IVDW_NL">     1</i>
   <i type="logical" name="LSPIN_VDW"> F  </i>
   <i name="Zab_VDW">     -0.84910000</i>
   <i name="PARAM1">      0.12340000</i>
   <i name="PARAM2">      1.00000000</i>
   <i name="PARAM3">      0.00000000</i>
  </separator>
  <separator name="model GW" >
   <i type="int" name="MODEL_GW">     0</i>
   <i name="MODEL_EPS0">     10.87133364</i>
   <i name="MODEL_ALPHA">      1.00000000</i>
  </separator>
  <separator name="linear response parameters" >
   <i type="logical" name="LEPSILON"> F  </i>
   <i type="logical" name="LRPA"> F  </i>
   <i type="logical" name="LNABLA"> F  </i>
   <i type="logical" name="LVEL"> F  </i>
   <i name="CSHIFT">      0.10000000</i>
   <i name="OMEGAMAX">     -1.00000000</i>
   <i name="DEG_THRESHOLD">      0.00200000</i>
   <i name="RTIME">     -0.10000000</i>
   <i name="WPLASMAI">      0.00000000</i>
   <v name="DFIELD">      0.00000000      0.00000000      0.00000000</v>
   <v name="WPLASMA">      0.00000000      0.00000000      0.00000000      0.00000000      0.00000000      0.00000000      0.00000000      0.00000000      0.00000000</v>
  </separator>
  <separator name="orbital magnetization" >
   <i type="logical" name="NUCIND"> F  </i>
   <v name="MAGPOS">      0.00000000      0.00000000      0.00000000</v>
   <i type="logical" name="LNICSALL"> T  </i>
   <i type="logical" name="ORBITALMAG"> F  </i>
   <i type="logical" name="LMAGBLOCH"> F  </i>
   <i type="logical" name="LCHIMAG"> F  </i>
   <i type="logical" name="LGAUGE"> T  </i>
   <i type="int" name="MAGATOM">     0</i>
   <v name="MAGDIPOL">      0.00000000      0.00000000      0.00000000</v>
   <v name="AVECCONST">      0.00000000      0.00000000      0.00000000</v>
  </separator>
  <separator name="response functions" >
   <i type="logical" name="LALL_IN_ONE"> F  </i>
   <i type="int" name="IALL_IN_ONE">    -1</i>
   <i type="int" name="NBANDS_WAVE">    -1</i>
   <i type="logical" name="LFINITE_TEMPERATURE"> F  </i>
   <i type="logical" name="LADDER"> F  </i>
   <i type="logical" name="LRPAFORCE"> F  </i>
   <i type="logical" name="LFXC"> F  </i>
   <i type="logical" name="LHARTREE"> T  </i>
   <i type="int" name="IBSE">     0</i>
   <v type="int" name="KPOINT">    -1     0     0     0</v>
   <i type="logical" name="LTCTC"> F  </i>
   <i type="logical" name="LTCTE"> F  </i>
   <i type="logical" name="LTETE"> F  </i>
   <i type="logical" name="LTRIPLET"> F  </i>
   <i type="logical" name="LFXCEPS"> F  </i>
   <i type="logical" name="LFXHEG"> F  </i>
   <i type="int" name="NATURALO">     2</i>
   <i type="logical" name="LHOLEGF"> F  </i>
   <i type="logical" name="L2ORDER"> F  </i>
   <i type="logical" name="LDMP1"> F  </i>
   <i type="logical" name="LMP2LT"> F  </i>
   <i type="logical" name="LSMP2LT"> F  </i>
   <i type="logical" name="LGWLF"> F  </i>
   <i name="ENCUTGW">     -1.60000002</i>
   <i name="ENCUTGWSOFT">     -1.60000002</i>
   <i name="ENCUTLF">     -1.00000000</i>
   <i type="logical" name="LESF_SPLINES"> F  </i>
   <i type="int" name="LMAXMP2">    -1</i>
   <i name="SCISSOR">      0.00000000</i>
   <i type="int" name="NOMEGA">     0</i>
   <i type="int" name="NOMEGAR">     0</i>
   <i type="int" name="NBANDSGW">    -1</i>
   <i type="int" name="NBANDSO">    -1</i>
   <i type="int" name="NBANDSV">    -1</i>
   <i type="int" name="NELMGW">     1</i>
   <i type="int" name="NELMHF">     1</i>
   <i type="int" name="DIM">     3</i>
   <i type="int" name="IESPILON">     4</i>
   <i type="int" name="ANTIRES">     0</i>
   <i name="OMEGAMAX">    -30.00000000</i>
   <i name="OMEGAMIN">    -30.00000000</i>
   <i name="OMEGATL">   -200.00000000</i>
   <i type="int" name="OMEGAGRID">     0</i>
   <i name="CSHIFT">     -0.10000000</i>
   <i type="logical" name="LSELFENERGY"> F  </i>
   <i type="logical" name="LSPECTRAL"> F  </i>
   <i type="logical" name="LSPECTRALGW"> F  </i>
   <i type="logical" name="LSINGLES"> F  </i>
   <i type="logical" name="LFERMIGW"> F  </i>
   <i type="logical" name="ODDONLYGW"> F  </i>
   <i type="logical" name="EVENONLYGW"> F  </i>
   <i type="int" name="NKREDLFX">     1</i>
   <i type="int" name="NKREDLFY">     1</i>
   <i type="int" name="NKREDLFZ">     1</i>
   <i type="int" name="MAXMEM">  2800</i>
   <i type="int" name="TELESCOPE">     0</i>
   <i type="int" name="NTAUPAR">    -1</i>
   <i type="int" name="NOMEGAPAR">    -1</i>
   <i name="DAMP_NEWTON">      0.80000001</i>
   <i name="LAMBDA">      1.00000000</i>
  </separator>
  <separator name="External order field" >
   <i name="OFIELD_KAPPA">      0.00000000</i>
   <v name="OFIELD_K">      0.00000000      0.00000000      0.00000000</v>
   <i name="OFIELD_Q6_NEAR">      0.00000000</i>
   <i name="OFIELD_Q6_FAR">      0.00000000</i>
   <i name="OFIELD_A">      0.00000000</i>
  </separator>
  <separator name="optional k-points parameters" >
   <i type="int" name="KPOINTS_OPT_MODE">     1</i>
   <i type="logical" name="LKPOINTS_OPT"> F  </i>
  </separator>
 </parameters>
 <atominfo>
  <atoms>       4 </atoms>
  <types>       1 </types>
  <array name="atoms" >
   <dimension dim="1">ion</dimension>
   <field type="string">element</field>
   <field type="int">atomtype</field>
   <set>
    <rc><c>Al</c><c>   1</c></rc>
    <rc><c>Al</c><c>   1</c></rc>
    <rc><c>Al</c><c>   1</c></rc>
    <rc><c>Al</c><c>   1</c></rc>
   </set>
  </array>
  <array name="atomtypes" >
   <dimension dim="1">type</dimension>
   <field type="int">atomspertype</field>
   <field type="string">element</field>
   <field>mass</field>
   <field>valence</field>
   <field type="string">pseudopotential</field>
   <set>
    <rc><c>   4</c><c>Al</c><c>     26.98100000</c><c>      3.00000000</c><c>  PAW_PBE Al 04Jan2001                  </c></rc>
   </set>
  </array>
 </atominfo>
 <structure name="initialpos" >
  <crystal>
   <varray name="basis" >
    <v>       4.16930681       0.00000000       0.00000000 </v>
    <v>      -0.00000000       4.16930681       0.00000000 </v>
    <v>       0.00000000       0.00000000       4.16930681 </v>
   </varray>
   <i name="volume">     72.47555758 </i>
   <varray name="rec_basis" >
    <v>       0.23984802       0.00000000      -0.00000000 </v>
    <v>       0.00000000       0.23984802       0.00000000 </v>
    <v>      -0.00000000      -0.00000000       0.23984802 </v>
   </varray>
  </crystal>
  <varray name="positions" >
   <v>       0.00000000       0.00000000       0.00000000 </v>
   <v>       0.00000000       0.50000000       0.50000000 </v>
   <v>       0.50000000       0.00000000       0.50000000 </v>
   <v>       0.50000000       0.50000000       0.00000000 </v>
  </varray>
 </structure>
 <calculation>
  <scstep>
   <time name="dav">   10.82    5.42</time>
   <time name="total">   10.88    5.44</time>
   <energy>
    <i name="alphaZ">     -0.74150459 </i>
    <i name="ewald">   -285.03028244 </i>
    <i name="hartreedc">     -0.58400362 </i>
    <i name="XCdc">   -105.62039148 </i>
    <i name="pawpsdc">    264.80062850 </i>
    <i name="pawaedc">   -136.98248303 </i>
    <i name="eentropy">     -0.00201621 </i>
    <i name="bandstr">     47.31736823 </i>
    <i name="atom">    214.15261729 </i>
    <i name="e_fr_energy">     -2.69006734 </i>
    <i name="e_wo_entrp">     -2.68805113 </i>
    <i name="e_0_energy">     -2.68939527 </i>
   </energy>
  </scstep>
  <scstep>
   <time name="dav">   15.11    7.59</time>
   <time name="total">   15.12    7.59</time>
   <energy>
    <i name="e_fr_energy">    -14.85860787 </i>
    <i name="e_wo_entrp">    -14.85752277 </i>
    <i name="e_0_energy">    -14.85824617 </i>
   </energy>
  </scstep>
  <scstep>
   <time name="dav">   14.26    7.15</time>
   <time name="total">   14.27    7.16</time>
   <energy>
    <i name="e_fr_energy">    -14.93456182 </i>
    <i name="e_wo_entrp">    -14.93260895 </i>
    <i name="e_0_energy">    -14.93391087 </i>
   </energy>
  </scstep>
  <scstep>
   <time name="dav">   18.03    9.07</time>
   <time name="total">   18.04    9.07</time>
   <energy>
    <i name="e_fr_energy">    -14.93473021 </i>
    <i name="e_wo_entrp">    -14.93277581 </i>
    <i name="e_0_energy">    -14.93407875 </i>
   </energy>
  </scstep>
  <scstep>
   <time name="dav">   15.89    8.01</time>
   <time name="total">   16.26    8.20</time>
   <energy>
    <i name="e_fr_energy">    -14.93473029 </i>
    <i name="e_wo_entrp">    -14.93277589 </i>
    <i name="e_0_energy">    -14.93407883 </i>
   </energy>
  </scstep>
  <scstep>
   <time name="diag">    1.85    0.93</time>
   <time name="diis">    3.36    1.81</time>
   <time name="orth">    0.29    0.15</time>
   <time name="total">    5.92    3.10</time>
   <energy>
    <i name="e_fr_energy">    -14.88552670 </i>
    <i name="e_wo_entrp">    -14.88359034 </i>
    <i name="e_0_energy">    -14.88488125 </i>
   </energy>
  </scstep>
  <scstep>
   <time name="diag">    1.76    0.88</time>
   <time name="diis">    3.36    1.83</time>
   <time name="orth">    0.13    0.06</time>
   <time name="total">    5.67    2.98</time>
   <energy>
    <i name="e_fr_energy">    -14.84975820 </i>
    <i name="e_wo_entrp">    -14.84786395 </i>
    <i name="e_0_energy">    -14.84912678 </i>
   </energy>
  </scstep>
  <scstep>
   <time name="diag">    1.77    0.88</time>
   <time name="diis">    3.37    1.81</time>
   <time name="orth">    0.13    0.06</time>
   <time name="total">    5.69    2.97</time>
   <energy>
    <i name="e_fr_energy">    -14.84973141 </i>
    <i name="e_wo_entrp">    -14.84783912 </i>
    <i name="e_0_energy">    -14.84910064 </i>
   </energy>
  </scstep>
  <scstep>
   <time name="diag">    1.77    0.88</time>
   <time name="diis">    3.33    1.79</time>
   <time name="orth">    0.13    0.07</time>
   <time name="total">    5.65    2.95</time>
   <energy>
    <i name="e_fr_energy">    -14.84973672 </i>
    <i name="e_wo_entrp">    -14.84784517 </i>
    <i name="e_0_energy">    -14.84910621 </i>
   </energy>
  </scstep>
  <scstep>
   <time name="diag">    1.85    0.93</time>
   <time name="diis">    3.34    1.80</time>
   <time name="orth">    0.13    0.07</time>
   <time name="total">    5.75    3.01</time>
   <energy>
    <i name="e_fr_energy">    -14.84973857 </i>
    <i name="e_wo_entrp">    -14.84784696 </i>
    <i name="e_0_energy">    -14.84910804 </i>
   </energy>
  </scstep>
  <scstep>
   <time name="diag">    1.74    0.87</time>
   <time name="diis">    3.34    1.79</time>
   <time name="orth">    0.12    0.06</time>
   <time name="total">    5.64    2.95</time>
   <energy>
    <i name="e_fr_energy">    -14.84973343 </i>
    <i name="e_wo_entrp">    -14.84784177 </i>
    <i name="e_0_energy">    -14.84910288 </i>
   </energy>
  </scstep>
  <scstep>
   <time name="diag">    1.85    0.92</time>
   <time name="diis">    2.63    1.67</time>
   <time name="orth">    0.13    0.06</time>
   <time name="total">    4.69    2.70</time>
   <energy>
    <i name="alphaZ">     -0.74150459 </i>
    <i name="ewald">   -285.03028244 </i>
    <i name="hartreedc">     -0.39800073 </i>
    <i name="XCdc">   -105.26721091 </i>
    <i name="pawpsdc">    482.35838881 </i>
    <i name="pawaedc">   -354.53827239 </i>
    <i name="eentropy">     -0.00189168 </i>
    <i name="bandstr">     34.61642297 </i>
    <i name="atom">    214.15261729 </i>
    <i name="e_fr_energy">    -14.84973367 </i>
    <i name="e_wo_entrp">    -14.84784199 </i>
    <i name="e_0_energy">    -14.84910311 </i>
   </energy>
  </scstep>
  <structure>
   <crystal>
    <varray name="basis" >
     <v>       4.16930681       0.00000000       0.00000000 </v>
     <v>      -0.00000000       4.16930681       0.00000000 </v>
     <v>       0.00000000       0.00000000       4.16930681 </v>
    </varray>
    <i name="volume">     72.47555758 </i>
    <varray name="rec_basis" >
     <v>       0.23984802       0.00000000      -0.00000000 </v>
     <v>       0.00000000       0.23984802       0.00000000 </v>
     <v>      -0.00000000      -0.00000000       0.23984802 </v>
    </varray>
   </crystal>
   <varray name="positions" >
    <v>       0.00000000       0.00000000       0.00000000 </v>
    <v>       0.00000000       0.50000000       0.50000000 </v>
    <v>       0.50000000       0.00000000       0.50000000 </v>
    <v>       0.50000000       0.50000000       0.00000000 </v>
   </varray>
  </structure>
  <varray name="forces" >
   <v>      -0.00000000       0.00000000      -0.00000000 </v>
   <v>       0.00000000       0.00000000       0.00000000 </v>
   <v>       0.00000000      -0.00000000      -0.00000000 </v>
   <v>      -0.00000000      -0.00000000       0.00000000 </v>
  </varray>
  <varray name="stress" >
   <v>     -58.85294786       0.00000000       0.00000000 </v>
   <v>       0.00000000     -58.85294786       0.00000000 </v>
   <v>      -0.00000000      -0.00000000     -58.85294786 </v>
  </varray>
  <energy>
   <i name="e_fr_energy">    -14.84973367 </i>
   <i name="e_wo_entrp">    -14.84784199 </i>
   <i name="e_0_energy">    -14.84910311 </i>
  </energy>
  <time name="totalsc">  122.89   62.96</time>
  <eigenvalues>
   <array>
    <dimension dim="1">band</dimension>
    <dimension dim="2">kpoint</dimension>
    <dimension dim="3">spin</dimension>
    <field>eigene</field>
    <field>occ</field>
    <set>
     <set comment="spin 1">
      <set comment="kpoint 1">
       <r>   -3.4459    1.0000 </r>
       <r>    4.3599    1.0000 </r>
       <r>    4.3599    1.0000 </r>
       <r>    4.3599    1.0000 </r>
       <r>    5.4569    1.0000 </r>
       <r>    5.4569    1.0000 </r>
       <r>    5.4569    1.0000 </r>
       <r>   12.2342   -0.0000 </r>
       <r>   12.2342   -0.0000 </r>
       <r>   12.2342   -0.0000 </r>
       <r>   12.2342   -0.0000 </r>
       <r>   12.2720   -0.0000 </r>
       <r>   12.2871   -0.0000 </r>
       <r>   12.2920   -0.0000 </r>
      </set>
      <set comment="kpoint 2">
       <r>   -3.4223    1.0000 </r>
       <r>    3.9100    1.0000 </r>
       <r>    4.3818    1.0000 </r>
       <r>    4.3818    1.0000 </r>
       <r>    5.4801    1.0000 </r>
       <r>    5.4801    1.0000 </r>
       <r>    5.9483    1.0000 </r>
       <r>   11.4514   -0.0000 </r>
       <r>   11.4514   -0.0000 </r>
       <r>   12.0438   -0.0000 </r>
       <r>   12.0438   -0.0000 </r>
       <r>   12.2546   -0.0000 </r>
       <r>   12.2546   -0.0000 </r>
       <r>   12.3152   -0.0000 </r>
      </set>
      <set comment="kpoint 3">
       <r>   -3.3515    1.0000 </r>
       <r>    3.1885    1.0000 </r>
       <r>    4.4472    1.0000 </r>
       <r>    4.4472    1.0000 </r>
       <r>    5.5497    1.0000 </r>
       <r>    5.5497    1.0000 </r>
       <r>    6.7939    1.0347 </r>
       <r>   10.6842   -0.0000 </r>
       <r>   10.6842   -0.0000 </r>
       <r>   11.5861   -0.0000 </r>
       <r>   11.5861   -0.0000 </r>
       <r>   12.3157   -0.0000 </r>
       <r>   12.3157   -0.0000 </r>
       <r>   12.3850   -0.0000 </r>
      </set>
      <set comment="kpoint 4">
       <r>   -3.2337    1.0000 </r>
       <r>    2.4624    1.0000 </r>
       <r>    4.5563    1.0000 </r>
       <r>    4.5563    1.0000 </r>
       <r>    5.6654    1.0000 </r>
       <r>    5.6654    1.0000 </r>
       <r>    7.7268   -0.0000 </r>
       <r>    9.9607   -0.0000 </r>
       <r>    9.9607   -0.0000 </r>
       <r>   11.0185   -0.0000 </r>
       <r>   11.0185   -0.0000 </r>
       <r>   12.4176   -0.0000 </r>
       <r>   12.4176   -0.0000 </r>
       <r>   12.5012   -0.0000 </r>
      </set>
      <set comment="kpoint 5">
       <r>   -3.0688    1.0000 </r>
       <r>    1.7658    1.0000 </r>
       <r>    4.7090    1.0000 </r>
       <r>    4.7090    1.0000 </r>
       <r>    5.8271    1.0000 </r>
       <r>    5.8271    1.0000 </r>
       <r>    8.7125   -0.0000 </r>
       <r>    9.2812   -0.0000 </r>
       <r>    9.2812   -0.0000 </r>
       <r>   10.4218   -0.0000 </r>
       <r>   10.4218   -0.0000 </r>
       <r>   12.5603    0.0000 </r>
       <r>   12.5603    0.0000 </r>
       <r>   12.6637    0.0000 </r>
      </set>
      <set comment="kpoint 6">
       <r>   -2.8571    1.0000 </r>
       <r>    1.1070    1.0000 </r>
       <r>    4.9053    1.0000 </r>
       <r>    4.9053    1.0000 </r>
       <r>    6.0341    1.0000 </r>
       <r>    6.0341    1.0000 </r>
       <r>    8.6456   -0.0000 </r>
       <r>    8.6456   -0.0000 </r>
       <r>    9.7423   -0.0000 </r>
       <r>    9.8309   -0.0000 </r>
       <r>    9.8309   -0.0000 </r>
       <r>   12.7437    0.0000 </r>
       <r>   12.7437    0.0000 </r>
       <r>   12.8723    0.0000 </r>
      </set>
      <set comment="kpoint 7">
       <r>   -2.5988    1.0000 </r>
       <r>    0.4892    1.0000 </r>
       <r>    5.1454    1.0000 </r>
       <r>    5.1454    1.0000 </r>
       <r>    6.2859    1.0000 </r>
       <r>    6.2859    1.0000 </r>
       <r>    8.0542   -0.0000 </r>
       <r>    8.0542   -0.0000 </r>
       <r>    9.2623   -0.0000 </r>
       <r>    9.2623   -0.0000 </r>
       <r>   10.8124   -0.0000 </r>
       <r>   12.9680    0.0000 </r>
       <r>   12.9680    0.0000 </r>
       <r>   13.1269    0.0000 </r>
      </set>
      <set comment="kpoint 8">
       <r>   -2.2941    1.0000 </r>
       <r>   -0.0859    1.0000 </r>
       <r>    5.4293    1.0000 </r>
       <r>    5.4293    1.0000 </r>
       <r>    6.5812    1.0021 </r>
       <r>    6.5812    1.0021 </r>
       <r>    7.5068   -0.0031 </r>
       <r>    7.5068   -0.0031 </r>
       <r>    8.7248   -0.0000 </r>
       <r>    8.7248   -0.0000 </r>
       <r>   11.9201   -0.0000 </r>
       <r>   13.2330    0.0000 </r>
       <r>   13.2330    0.0000 </r>
       <r>   13.4272    0.0000 </r>
      </set>
      <set comment="kpoint 9">
       <r>   -1.9432    1.0000 </r>
       <r>   -0.6173    1.0000 </r>
       <r>    5.7570    1.0000 </r>
       <r>    5.7570    1.0000 </r>
       <r>    6.9171    0.9529 </r>
       <r>    6.9171    0.9529 </r>
       <r>    7.0033    0.7042 </r>
       <r>    7.0033    0.7042 </r>
       <r>    8.2257   -0.0000 </r>
       <r>    8.2257   -0.0000 </r>
       <r>   13.0628    0.0000 </r>
       <r>   13.5388    0.0000 </r>
       <r>   13.5388    0.0000 </r>
       <r>   13.7726    0.0000 </r>
      </set>
      <set comment="kpoint 10">
       <r>   -1.5465    1.0000 </r>
       <r>   -1.1044    1.0000 </r>
       <r>    6.1285    1.0000 </r>
       <r>    6.1285    1.0000 </r>
       <r>    6.5439    1.0009 </r>
       <r>    6.5439    1.0009 </r>
       <r>    7.2754   -0.0331 </r>
       <r>    7.2754   -0.0331 </r>
       <r>    7.7854   -0.0000 </r>
       <r>    7.7854   -0.0000 </r>
       <r>   13.8854    0.0000 </r>
       <r>   13.8855    0.0000 </r>
       <r>   14.1741    0.0000 </r>
       <r>   14.2374    0.0000 </r>
      </set>
      <set comment="kpoint 11">
       <r>   -3.3987    1.0000 </r>
       <r>    3.9323    1.0000 </r>
       <r>    3.9323    1.0000 </r>
       <r>    4.4036    1.0000 </r>
       <r>    5.5033    1.0000 </r>
       <r>    5.9710    1.0000 </r>
       <r>    5.9710    1.0000 </r>
       <r>   10.9542   -0.0000 </r>
       <r>   11.4732   -0.0000 </r>
       <r>   11.4732   -0.0000 </r>
       <r>   12.0644   -0.0000 </r>
       <r>   12.0644   -0.0000 </r>
       <r>   12.2752   -0.0000 </r>
       <r>   13.1405    0.0000 </r>
      </set>
      <set comment="kpoint 12">
       <r>   -3.3279    1.0000 </r>
       <r>    3.2110    1.0000 </r>
       <r>    3.9989    1.0000 </r>
       <r>    4.4690    1.0000 </r>
       <r>    5.5728    1.0000 </r>
       <r>    6.0393    1.0000 </r>
       <r>    6.8164    1.0352 </r>
       <r>   10.2419   -0.0000 </r>
       <r>   10.7060   -0.0000 </r>
       <r>   11.5385   -0.0000 </r>
       <r>   11.6070   -0.0000 </r>
       <r>   11.9990   -0.0000 </r>
       <r>   12.1261   -0.0000 </r>
       <r>   13.2059    0.0000 </r>
      </set>
      <set comment="kpoint 13">
       <r>   -3.2101    1.0000 </r>
       <r>    2.4851    1.0000 </r>
       <r>    4.1100    1.0000 </r>
       <r>    4.5781    1.0000 </r>
       <r>    5.6885    1.0000 </r>
       <r>    6.1530    1.0000 </r>
       <r>    7.7490   -0.0000 </r>
       <r>    9.5392   -0.0000 </r>
       <r>    9.9825   -0.0000 </r>
       <r>   11.0398   -0.0000 </r>
       <r>   11.4564   -0.0000 </r>
       <r>   11.6474   -0.0000 </r>
       <r>   12.2289   -0.0000 </r>
       <r>   13.3150    0.0000 </r>
      </set>
      <set comment="kpoint 14">
       <r>   -3.0453    1.0000 </r>
       <r>    1.7886    1.0000 </r>
       <r>    4.2654    1.0000 </r>
       <r>    4.7308    1.0000 </r>
       <r>    5.8500    1.0000 </r>
       <r>    6.3118    1.0000 </r>
       <r>    8.7345   -0.0000 </r>
       <r>    8.8689   -0.0000 </r>
       <r>    9.3030   -0.0000 </r>
       <r>   10.4434   -0.0000 </r>
       <r>   10.8639   -0.0000 </r>
       <r>   11.7996   -0.0000 </r>
       <r>   12.3727   -0.0000 </r>
       <r>   13.4678    0.0000 </r>
      </set>
      <set comment="kpoint 15">
       <r>   -2.8336    1.0000 </r>
       <r>    1.1299    1.0000 </r>
       <r>    4.4651    1.0000 </r>
       <r>    4.9272    1.0000 </r>
       <r>    6.0569    1.0000 </r>
       <r>    6.5153    1.0005 </r>
       <r>    8.2372   -0.0000 </r>
       <r>    8.6675   -0.0000 </r>
       <r>    9.7640   -0.0000 </r>
       <r>    9.8529   -0.0000 </r>
       <r>   10.2746   -0.0000 </r>
       <r>   11.9951   -0.0000 </r>
       <r>   12.5576    0.0000 </r>
       <r>   13.6643    0.0000 </r>
      </set>
      <set comment="kpoint 16">
       <r>   -2.5753    1.0000 </r>
       <r>    0.5122    1.0000 </r>
       <r>    4.7090    1.0000 </r>
       <r>    5.1673    1.0000 </r>
       <r>    6.3081    1.0000 </r>
       <r>    6.7629    1.0297 </r>
       <r>    7.6469   -0.0001 </r>
       <r>    8.0760   -0.0000 </r>
       <r>    9.2847   -0.0000 </r>
       <r>    9.7076   -0.0000 </r>
       <r>   10.8338   -0.0000 </r>
       <r>   12.2336   -0.0000 </r>
       <r>   12.7834    0.0000 </r>
       <r>   13.9045    0.0000 </r>
      </set>
      <set comment="kpoint 17">
       <r>   -2.2706    1.0000 </r>
       <r>   -0.0628    1.0000 </r>
       <r>    4.9970    1.0000 </r>
       <r>    5.4511    1.0000 </r>
       <r>    6.6001    1.0031 </r>
       <r>    7.0533    0.4996 </r>
       <r>    7.1020    0.3003 </r>
       <r>    7.5286   -0.0020 </r>
       <r>    8.7481   -0.0000 </r>
       <r>    9.1722   -0.0000 </r>
       <r>   11.9411   -0.0000 </r>
       <r>   12.5150    0.0000 </r>
       <r>   13.0502    0.0000 </r>
       <r>   14.1883    0.0000 </r>
      </set>
      <set comment="kpoint 18">
       <r>   -1.9198    1.0000 </r>
       <r>   -0.5942    1.0000 </r>
       <r>    5.3288    1.0000 </r>
       <r>    5.7788    1.0000 </r>
       <r>    6.5797    1.0020 </r>
       <r>    6.9548    0.8659 </r>
       <r>    7.0252    0.6175 </r>
       <r>    7.3813   -0.0212 </r>
       <r>    8.2528   -0.0000 </r>
       <r>    8.6741   -0.0000 </r>
       <r>   12.8390    0.0000 </r>
       <r>   13.0827    0.0000 </r>
       <r>   13.3581    0.0000 </r>
       <r>   14.0623    0.0000 </r>
      </set>
      <set comment="kpoint 19">
       <r>   -1.5232    1.0000 </r>
       <r>   -1.0811    1.0000 </r>
       <r>    5.7044    1.0000 </r>
       <r>    6.1229    1.0000 </r>
       <r>    6.1504    1.0000 </r>
       <r>    6.5658    1.0015 </r>
       <r>    7.3242   -0.0333 </r>
       <r>    7.6475   -0.0001 </r>
       <r>    7.9004   -0.0000 </r>
       <r>    8.2203   -0.0000 </r>
       <r>   13.2051    0.0000 </r>
       <r>   13.6132    0.0000 </r>
       <r>   13.7054    0.0000 </r>
       <r>   14.0955    0.0000 </r>
      </set>
      <set comment="kpoint 20">
       <r>   -3.2572    1.0000 </r>
       <r>    3.2785    1.0000 </r>
       <r>    3.2785    1.0000 </r>
       <r>    4.5345    1.0000 </r>
       <r>    5.6423    1.0000 </r>
       <r>    6.8838    1.0012 </r>
       <r>    6.8838    1.0012 </r>
       <r>    9.5486   -0.0000 </r>
       <r>   10.7715   -0.0000 </r>
       <r>   10.7715   -0.0000 </r>
       <r>   11.6698   -0.0000 </r>
       <r>   11.6698   -0.0000 </r>
       <r>   12.3979   -0.0000 </r>
       <r>   13.7346    0.0000 </r>
      </set>
      <set comment="kpoint 21">
       <r>   -3.1395    1.0000 </r>
       <r>    2.5531    1.0000 </r>
       <r>    3.3909    1.0000 </r>
       <r>    4.6435    1.0000 </r>
       <r>    5.7578    1.0000 </r>
       <r>    6.9959    0.7321 </r>
       <r>    7.8156   -0.0000 </r>
       <r>    8.8521   -0.0000 </r>
       <r>   10.0481   -0.0000 </r>
       <r>   10.8806   -0.0000 </r>
       <r>   11.1036   -0.0000 </r>
       <r>   11.7743   -0.0000 </r>
       <r>   12.1534   -0.0000 </r>
       <r>   14.2162    0.0000 </r>
      </set>
      <set comment="kpoint 22">
       <r>   -2.9747    1.0000 </r>
       <r>    1.8569    1.0000 </r>
       <r>    3.5481    1.0000 </r>
       <r>    4.7962    1.0000 </r>
       <r>    5.9189    1.0000 </r>
       <r>    7.1524    0.1322 </r>
       <r>    8.1837   -0.0000 </r>
       <r>    8.8004   -0.0000 </r>
       <r>    9.3686   -0.0000 </r>
       <r>   10.5082   -0.0000 </r>
       <r>   11.0333   -0.0000 </r>
       <r>   11.6286   -0.0000 </r>
       <r>   11.9204   -0.0000 </r>
       <r>   14.3644    0.0000 </r>
      </set>
      <set comment="kpoint 23">
       <r>   -2.7632    1.0000 </r>
       <r>    1.1986    1.0000 </r>
       <r>    3.7502    1.0000 </r>
       <r>    4.9926    1.0000 </r>
       <r>    6.1249    1.0000 </r>
       <r>    7.3530   -0.0277 </r>
       <r>    7.5522   -0.0012 </r>
       <r>    8.7331   -0.0000 </r>
       <r>    9.8291   -0.0000 </r>
       <r>    9.9188   -0.0000 </r>
       <r>   11.0619   -0.0000 </r>
       <r>   11.2294   -0.0000 </r>
       <r>   12.1082   -0.0000 </r>
       <r>   14.5601    0.0000 </r>
      </set>
      <set comment="kpoint 24">
       <r>   -2.5050    1.0000 </r>
       <r>    0.5812    1.0000 </r>
       <r>    3.9968    1.0000 </r>
       <r>    5.2327    1.0000 </r>
       <r>    6.3723    1.0000 </r>
       <r>    6.9639    0.8394 </r>
       <r>    7.5966   -0.0004 </r>
       <r>    8.1416   -0.0000 </r>
       <r>    9.3522   -0.0000 </r>
       <r>   10.5060   -0.0000 </r>
       <r>   10.8977   -0.0000 </r>
       <r>   11.4689   -0.0000 </r>
       <r>   12.3374   -0.0000 </r>
       <r>   14.3418    0.0000 </r>
      </set>
      <set comment="kpoint 25">
       <r>   -2.2004    1.0000 </r>
       <r>    0.0064    1.0000 </r>
       <r>    4.2878    1.0000 </r>
       <r>    5.5166    1.0000 </r>
       <r>    6.3868    1.0000 </r>
       <r>    6.6941    1.0146 </r>
       <r>    7.5942   -0.0004 </r>
       <r>    7.8794   -0.0000 </r>
       <r>    8.8203   -0.0000 </r>
       <r>    9.9775   -0.0000 </r>
       <r>   11.7516   -0.0000 </r>
       <r>   12.0027   -0.0000 </r>
       <r>   12.6087    0.0000 </r>
       <r>   13.8057    0.0000 </r>
      </set>
      <set comment="kpoint 26">
       <r>   -1.8498    1.0000 </r>
       <r>   -0.5247    1.0000 </r>
       <r>    4.6231    1.0000 </r>
       <r>    5.8443    1.0000 </r>
       <r>    5.8897    1.0000 </r>
       <r>    7.0216    0.6321 </r>
       <r>    7.0907    0.3444 </r>
       <r>    8.1402   -0.0000 </r>
       <r>    8.3886   -0.0000 </r>
       <r>    9.4838   -0.0000 </r>
       <r>   12.0775   -0.0000 </r>
       <r>   12.9117    0.0000 </r>
       <r>   13.1515    0.0000 </r>
       <r>   13.3108    0.0000 </r>
      </set>
      <set comment="kpoint 27">
       <r>   -1.4533    1.0000 </r>
       <r>   -1.0115    1.0000 </r>
       <r>    5.0022    1.0000 </r>
       <r>    5.4248    1.0000 </r>
       <r>    6.2159    1.0000 </r>
       <r>    6.6314    1.0055 </r>
       <r>    7.4011   -0.0169 </r>
       <r>    7.8172   -0.0000 </r>
       <r>    8.6214   -0.0000 </r>
       <r>    9.0295   -0.0000 </r>
       <r>   12.4461   -0.0000 </r>
       <r>   12.8574    0.0000 </r>
       <r>   13.2672    0.0000 </r>
       <r>   13.6585    0.0000 </r>
      </set>
      <set comment="kpoint 28">
       <r>   -3.0218    1.0000 </r>
       <r>    2.6663    1.0000 </r>
       <r>    2.6663    1.0000 </r>
       <r>    4.7526    1.0000 </r>
       <r>    5.8728    1.0000 </r>
       <r>    7.9265   -0.0000 </r>
       <r>    7.9265   -0.0000 </r>
       <r>    8.1559   -0.0000 </r>
       <r>   10.1573   -0.0000 </r>
       <r>   10.1573   -0.0000 </r>
       <r>   11.2098   -0.0000 </r>
       <r>   11.2098   -0.0000 </r>
       <r>   12.6025    0.0000 </r>
       <r>   14.0934    0.0000 </r>
      </set>
      <set comment="kpoint 29">
       <r>   -2.8572    1.0000 </r>
       <r>    1.9708    1.0000 </r>
       <r>    2.8247    1.0000 </r>
       <r>    4.9053    1.0000 </r>
       <r>    6.0331    1.0000 </r>
       <r>    7.4867   -0.0045 </r>
       <r>    8.0812   -0.0000 </r>
       <r>    8.9099   -0.0000 </r>
       <r>    9.4778   -0.0000 </r>
       <r>   10.3101   -0.0000 </r>
       <r>   10.6162   -0.0000 </r>
       <r>   11.3584   -0.0000 </r>
       <r>   12.4009   -0.0000 </r>
       <r>   14.6301    0.0000 </r>
      </set>
      <set comment="kpoint 30">
       <r>   -2.6458    1.0000 </r>
       <r>    1.3130    1.0000 </r>
       <r>    3.0281    1.0000 </r>
       <r>    5.1017    1.0000 </r>
       <r>    6.2352    1.0000 </r>
       <r>    6.8566    1.0233 </r>
       <r>    8.2789   -0.0000 </r>
       <r>    8.8424   -0.0000 </r>
       <r>    9.9369   -0.0000 </r>
       <r>   10.0290   -0.0000 </r>
       <r>   10.5066   -0.0000 </r>
       <r>   11.5495   -0.0000 </r>
       <r>   11.9144   -0.0000 </r>
       <r>   14.2124    0.0000 </r>
      </set>
      <set comment="kpoint 31">
       <r>   -2.3878    1.0000 </r>
       <r>    0.6961    1.0000 </r>
       <r>    3.2765    1.0000 </r>
       <r>    5.3419    1.0000 </r>
       <r>    6.2325    1.0000 </r>
       <r>    6.5156    1.0005 </r>
       <r>    8.2509   -0.0000 </r>
       <r>    8.5163   -0.0000 </r>
       <r>    9.4673   -0.0000 </r>
       <r>   10.7465   -0.0000 </r>
       <r>   11.0021   -0.0000 </r>
       <r>   11.3867   -0.0000 </r>
       <r>   11.7839   -0.0000 </r>
       <r>   13.6320    0.0000 </r>
      </set>
      <set comment="kpoint 32">
       <r>   -2.0835    1.0000 </r>
       <r>    0.1217    1.0000 </r>
       <r>    3.5696    1.0000 </r>
       <r>    5.6258    1.0000 </r>
       <r>    5.6930    1.0000 </r>
       <r>    6.7970    1.0350 </r>
       <r>    7.7035   -0.0000 </r>
       <r>    8.7421   -0.0000 </r>
       <r>    8.9905   -0.0000 </r>
       <r>   10.8720   -0.0000 </r>
       <r>   11.0299   -0.0000 </r>
       <r>   12.0150   -0.0000 </r>
       <r>   12.1490   -0.0000 </r>
       <r>   13.0926    0.0000 </r>
      </set>
      <set comment="kpoint 33">
       <r>   -1.7331    1.0000 </r>
       <r>   -0.4090    1.0000 </r>
       <r>    3.9071    1.0000 </r>
       <r>    5.1828    1.0000 </r>
       <r>    5.9535    1.0000 </r>
       <r>    7.1350    0.1841 </r>
       <r>    7.2000    0.0288 </r>
       <r>    8.3947   -0.0000 </r>
       <r>    9.1645   -0.0000 </r>
       <r>   10.3864   -0.0000 </r>
       <r>   11.3566   -0.0000 </r>
       <r>   12.3629   -0.0000 </r>
       <r>   12.5948    0.0000 </r>
       <r>   13.2542    0.0000 </r>
      </set>
      <set comment="kpoint 34">
       <r>   -1.3369    1.0000 </r>
       <r>   -0.8954    1.0000 </r>
       <r>    4.2888    1.0000 </r>
       <r>    4.7142    1.0000 </r>
       <r>    6.3251    1.0000 </r>
       <r>    6.7406    1.0248 </r>
       <r>    7.5165   -0.0025 </r>
       <r>    7.9386   -0.0000 </r>
       <r>    9.5272   -0.0000 </r>
       <r>    9.9367   -0.0000 </r>
       <r>   11.7265   -0.0000 </r>
       <r>   12.1393   -0.0000 </r>
       <r>   12.7195    0.0000 </r>
       <r>   13.1143    0.0000 </r>
      </set>
      <set comment="kpoint 35">
       <r>   -2.6927    1.0000 </r>
       <r>    2.1301    1.0000 </r>
       <r>    2.1301    1.0000 </r>
       <r>    5.0581    1.0000 </r>
       <r>    6.1894    1.0000 </r>
       <r>    6.8187    1.0350 </r>
       <r>    9.0624   -0.0000 </r>
       <r>    9.0624   -0.0000 </r>
       <r>    9.6308   -0.0000 </r>
       <r>    9.6308   -0.0000 </r>
       <r>   10.7676   -0.0000 </r>
       <r>   10.7676   -0.0000 </r>
       <r>   12.8890    0.0000 </r>
       <r>   14.1717    0.0000 </r>
      </set>
      <set comment="kpoint 36">
       <r>   -2.4816    1.0000 </r>
       <r>    1.4730    1.0000 </r>
       <r>    2.3346    1.0000 </r>
       <r>    5.2545    1.0000 </r>
       <r>    6.1519    1.0000 </r>
       <r>    6.4255    1.0000 </r>
       <r>    8.9954   -0.0000 </r>
       <r>    9.2547   -0.0000 </r>
       <r>    9.8274   -0.0000 </r>
       <r>   10.0849   -0.0000 </r>
       <r>   10.1855   -0.0000 </r>
       <r>   10.9639   -0.0000 </r>
       <r>   12.7338    0.0000 </r>
       <r>   13.5448    0.0000 </r>
      </set>
      <set comment="kpoint 37">
       <r>   -2.2239    1.0000 </r>
       <r>    0.8567    1.0000 </r>
       <r>    2.5843    1.0000 </r>
       <r>    5.4947    1.0000 </r>
       <r>    5.5697    1.0000 </r>
       <r>    6.6611    1.0091 </r>
       <r>    8.4040   -0.0000 </r>
       <r>    9.4391   -0.0000 </r>
       <r>    9.6760   -0.0000 </r>
       <r>   10.0676   -0.0000 </r>
       <r>   11.0920   -0.0000 </r>
       <r>   11.2572   -0.0000 </r>
       <r>   12.2922   -0.0000 </r>
       <r>   12.9613    0.0000 </r>
      </set>
      <set comment="kpoint 38">
       <r>   -1.9199    1.0000 </r>
       <r>    0.2830    1.0000 </r>
       <r>    2.8790    1.0000 </r>
       <r>    5.0148    1.0000 </r>
       <r>    5.7787    1.0000 </r>
       <r>    6.9549    0.8654 </r>
       <r>    7.8565   -0.0000 </r>
       <r>    9.0536   -0.0000 </r>
       <r>    9.8089   -0.0000 </r>
       <r>   10.3514   -0.0000 </r>
       <r>   11.4596   -0.0000 </r>
       <r>   11.8082   -0.0000 </r>
       <r>   12.2685   -0.0000 </r>
       <r>   12.4195   -0.0000 </r>
      </set>
      <set comment="kpoint 39">
       <r>   -1.5698    1.0000 </r>
       <r>   -0.2472    1.0000 </r>
       <r>    3.2183    1.0000 </r>
       <r>    4.5010    1.0000 </r>
       <r>    6.1065    1.0000 </r>
       <r>    7.2937   -0.0354 </r>
       <r>    7.3530   -0.0277 </r>
       <r>    8.5598   -0.0000 </r>
       <r>   10.1269   -0.0000 </r>
       <r>   10.6786   -0.0000 </r>
       <r>   11.3374   -0.0000 </r>
       <r>   11.7814   -0.0000 </r>
       <r>   11.9199   -0.0000 </r>
       <r>   12.9755    0.0000 </r>
      </set>
      <set comment="kpoint 40">
       <r>   -1.1741    1.0000 </r>
       <r>   -0.7331    1.0000 </r>
       <r>    3.6021    1.0000 </r>
       <r>    4.0298    1.0000 </r>
       <r>    6.4781    1.0002 </r>
       <r>    6.8936    0.9896 </r>
       <r>    7.6753   -0.0000 </r>
       <r>    8.0981   -0.0000 </r>
       <r>   10.4914   -0.0000 </r>
       <r>   10.8962   -0.0000 </r>
       <r>   11.0492   -0.0000 </r>
       <r>   11.4630   -0.0000 </r>
       <r>   12.1409   -0.0000 </r>
       <r>   12.5392    0.0000 </r>
      </set>
      <set comment="kpoint 41">
       <r>   -2.2707    1.0000 </r>
       <r>    1.6785    1.0000 </r>
       <r>    1.6785    1.0000 </r>
       <r>    5.4510    1.0000 </r>
       <r>    5.5280    1.0000 </r>
       <r>    6.6156    1.0042 </r>
       <r>    9.1921   -0.0000 </r>
       <r>    9.1921   -0.0000 </r>
       <r>   10.2249   -0.0000 </r>
       <r>   10.2249   -0.0000 </r>
       <r>   10.4342   -0.0000 </r>
       <r>   10.4342   -0.0000 </r>
       <r>   12.9175    0.0000 </r>
       <r>   13.2573    0.0000 </r>
      </set>
      <set comment="kpoint 42">
       <r>   -2.0134    1.0000 </r>
       <r>    1.0631    1.0000 </r>
       <r>    1.9294    1.0000 </r>
       <r>    4.9296    1.0000 </r>
       <r>    5.6912    1.0000 </r>
       <r>    6.8645    1.0183 </r>
       <r>    8.6007   -0.0000 </r>
       <r>    9.4325   -0.0000 </r>
       <r>    9.7894   -0.0000 </r>
       <r>   10.5438   -0.0000 </r>
       <r>   10.5951   -0.0000 </r>
       <r>   11.3645   -0.0000 </r>
       <r>   12.3317   -0.0000 </r>
       <r>   13.1505    0.0000 </r>
      </set>
      <set comment="kpoint 43">
       <r>   -1.7098    1.0000 </r>
       <r>    0.4902    1.0000 </r>
       <r>    2.2254    1.0000 </r>
       <r>    4.3711    1.0000 </r>
       <r>    5.9753    1.0000 </r>
       <r>    7.1589    0.1148 </r>
       <r>    8.0533   -0.0000 </r>
       <r>    9.2609   -0.0000 </r>
       <r>    9.7165   -0.0000 </r>
       <r>   10.8178   -0.0000 </r>
       <r>   10.8808   -0.0000 </r>
       <r>   11.7882   -0.0000 </r>
       <r>   12.4570   -0.0000 </r>
       <r>   12.7570    0.0000 </r>
      </set>
      <set comment="kpoint 44">
       <r>   -1.3602    1.0000 </r>
       <r>   -0.0393    1.0000 </r>
       <r>    2.5662    1.0000 </r>
       <r>    3.8547    1.0000 </r>
       <r>    6.3031    1.0000 </r>
       <r>    7.4972   -0.0037 </r>
       <r>    7.5498   -0.0013 </r>
       <r>    8.7624   -0.0000 </r>
       <r>   10.0441   -0.0000 </r>
       <r>   11.1374   -0.0000 </r>
       <r>   11.2036   -0.0000 </r>
       <r>   11.2874   -0.0000 </r>
       <r>   12.3187   -0.0000 </r>
       <r>   12.4075   -0.0000 </r>
      </set>
      <set comment="kpoint 45">
       <r>   -0.9650    1.0000 </r>
       <r>   -0.5245    1.0000 </r>
       <r>    2.9517    1.0000 </r>
       <r>    3.3814    1.0000 </r>
       <r>    6.6748    1.0111 </r>
       <r>    7.0903    0.3461 </r>
       <r>    7.8782   -0.0000 </r>
       <r>    8.3005   -0.0000 </r>
       <r>   10.4151   -0.0000 </r>
       <r>   10.8296   -0.0000 </r>
       <r>   11.4971   -0.0000 </r>
       <r>   11.5661   -0.0000 </r>
       <r>   11.8931   -0.0000 </r>
       <r>   11.9678   -0.0000 </r>
      </set>
      <set comment="kpoint 46">
       <r>   -1.7564    1.0000 </r>
       <r>    1.3150    1.0000 </r>
       <r>    1.3150    1.0000 </r>
       <r>    4.3276    1.0000 </r>
       <r>    5.9315    1.0000 </r>
       <r>    7.1139    0.2561 </r>
       <r>    8.8412   -0.0000 </r>
       <r>    8.8412   -0.0000 </r>
       <r>   10.0369   -0.0000 </r>
       <r>   10.0369   -0.0000 </r>
       <r>   11.5955   -0.0000 </r>
       <r>   11.5955   -0.0000 </r>
       <r>   11.7443   -0.0000 </r>
       <r>   12.8517    0.0000 </r>
      </set>
      <set comment="kpoint 47">
       <r>   -1.4534    1.0000 </r>
       <r>    0.7430    1.0000 </r>
       <r>    1.6122    1.0000 </r>
       <r>    3.7667    1.0000 </r>
       <r>    6.2156    1.0000 </r>
       <r>    7.4077   -0.0155 </r>
       <r>    8.2938   -0.0000 </r>
       <r>    9.1253   -0.0000 </r>
       <r>    9.5052   -0.0000 </r>
       <r>   10.3213   -0.0000 </r>
       <r>   11.1996   -0.0000 </r>
       <r>   11.8703   -0.0000 </r>
       <r>   12.3390   -0.0000 </r>
       <r>   12.6873    0.0000 </r>
      </set>
      <set comment="kpoint 48">
       <r>   -1.1044    1.0000 </r>
       <r>    0.2144    1.0000 </r>
       <r>    1.9545    1.0000 </r>
       <r>    3.2481    1.0000 </r>
       <r>    6.5435    1.0009 </r>
       <r>    7.7451   -0.0000 </r>
       <r>    7.7903   -0.0000 </r>
       <r>    9.0071   -0.0000 </r>
       <r>    9.4531   -0.0000 </r>
       <r>   10.6462   -0.0000 </r>
       <r>   10.6979   -0.0000 </r>
       <r>   11.8596   -0.0000 </r>
       <r>   12.1848   -0.0000 </r>
       <r>   13.3061    0.0000 </r>
      </set>
      <set comment="kpoint 49">
       <r>   -0.7098    1.0000 </r>
       <r>   -0.2701    1.0000 </r>
       <r>    2.3415    1.0000 </r>
       <r>    2.7729    1.0000 </r>
       <r>    6.9152    0.9564 </r>
       <r>    7.3308   -0.0322 </r>
       <r>    8.1250   -0.0000 </r>
       <r>    8.5462   -0.0000 </r>
       <r>    9.8245   -0.0000 </r>
       <r>   10.2395   -0.0000 </r>
       <r>   11.0115   -0.0000 </r>
       <r>   11.4164   -0.0000 </r>
       <r>   12.5354    0.0000 </r>
       <r>   12.9149    0.0000 </r>
      </set>
      <set comment="kpoint 50">
       <r>   -1.1509    1.0000 </r>
       <r>    1.0413    1.0000 </r>
       <r>    1.0413    1.0000 </r>
       <r>    3.2036    1.0000 </r>
       <r>    6.4997    1.0003 </r>
       <r>    7.7006   -0.0000 </r>
       <r>    8.5780   -0.0000 </r>
       <r>    8.5780   -0.0000 </r>
       <r>    9.7908   -0.0000 </r>
       <r>    9.7908   -0.0000 </r>
       <r>   10.6540   -0.0000 </r>
       <r>   11.8229   -0.0000 </r>
       <r>   12.9567    0.0000 </r>
       <r>   12.9567    0.0000 </r>
      </set>
      <set comment="kpoint 51">
       <r>   -0.8025    1.0000 </r>
       <r>    0.5137    1.0000 </r>
       <r>    1.3848    1.0000 </r>
       <r>    2.6832    1.0000 </r>
       <r>    6.8277    1.0338 </r>
       <r>    8.0368   -0.0000 </r>
       <r>    8.0746   -0.0000 </r>
       <r>    8.9060   -0.0000 </r>
       <r>    9.2942   -0.0000 </r>
       <r>   10.1178   -0.0000 </r>
       <r>   10.1517   -0.0000 </r>
       <r>   11.3401   -0.0000 </r>
       <r>   13.2616    0.0000 </r>
       <r>   14.0697    0.0000 </r>
      </set>
      <set comment="kpoint 52">
       <r>   -0.4087    1.0000 </r>
       <r>    0.0302    1.0000 </r>
       <r>    1.7732    1.0000 </r>
       <r>    2.2062    1.0000 </r>
       <r>    7.1994    0.0298 </r>
       <r>    7.6150   -0.0003 </r>
       <r>    8.4153   -0.0000 </r>
       <r>    8.8350   -0.0000 </r>
       <r>    9.2776   -0.0000 </r>
       <r>    9.6928   -0.0000 </r>
       <r>   10.4858   -0.0000 </r>
       <r>   10.8937   -0.0000 </r>
       <r>   13.5948    0.0000 </r>
       <r>   13.9382    0.0000 </r>
      </set>
      <set comment="kpoint 53">
       <r>   -0.4550    1.0000 </r>
       <r>    0.8584    1.0000 </r>
       <r>    0.8584    1.0000 </r>
       <r>    2.1610    1.0000 </r>
       <r>    7.1556    0.1235 </r>
       <r>    8.3715   -0.0000 </r>
       <r>    8.4025   -0.0000 </r>
       <r>    8.4025   -0.0000 </r>
       <r>    9.6234   -0.0000 </r>
       <r>    9.6234   -0.0000 </r>
       <r>    9.6490   -0.0000 </r>
       <r>   10.8541   -0.0000 </r>
       <r>   14.3562    0.0000 </r>
       <r>   14.3569    0.0000 </r>
      </set>
      <set comment="kpoint 54">
       <r>   -0.0621    1.0000 </r>
       <r>    0.3759    1.0000 </r>
       <r>    1.2481    1.0000 </r>
       <r>    1.6824    1.0000 </r>
       <r>    7.5274   -0.0020 </r>
       <r>    7.9431   -0.0000 </r>
       <r>    8.7484   -0.0000 </r>
       <r>    8.7743   -0.0000 </r>
       <r>    9.1662   -0.0000 </r>
       <r>    9.1898   -0.0000 </r>
       <r>    9.9939   -0.0000 </r>
       <r>   10.4047   -0.0000 </r>
       <r>   14.6515    0.0000 </r>
       <r>   14.8934    0.0000 </r>
      </set>
      <set comment="kpoint 55">
       <r>    0.3299    1.0000 </r>
       <r>    0.7667    1.0000 </r>
       <r>    0.7667    1.0000 </r>
       <r>    1.2024    1.0000 </r>
       <r>    7.8992   -0.0000 </r>
       <r>    8.3149   -0.0000 </r>
       <r>    8.3149   -0.0000 </r>
       <r>    8.7304   -0.0000 </r>
       <r>    9.1234   -0.0000 </r>
       <r>    9.5390   -0.0000 </r>
       <r>    9.5390   -0.0000 </r>
       <r>    9.9524   -0.0000 </r>
       <r>   15.5485    0.0000 </r>
       <r>   15.6341    0.0000 </r>
      </set>
      <set comment="kpoint 56">
       <r>   -3.3751    1.0000 </r>
       <r>    3.9545    1.0000 </r>
       <r>    3.9545    1.0000 </r>
       <r>    3.9545    1.0000 </r>
       <r>    5.9938    1.0000 </r>
       <r>    5.9938    1.0000 </r>
       <r>    5.9938    1.0000 </r>
       <r>   10.9759   -0.0000 </r>
       <r>   10.9759   -0.0000 </r>
       <r>   10.9759   -0.0000 </r>
       <r>   12.2955   -0.0000 </r>
       <r>   12.2955   -0.0000 </r>
       <r>   12.2955   -0.0000 </r>
       <r>   13.2380    0.0000 </r>
      </set>
      <set comment="kpoint 57">
       <r>   -3.3044    1.0000 </r>
       <r>    3.2335    1.0000 </r>
       <r>    4.0211    1.0000 </r>
       <r>    4.0211    1.0000 </r>
       <r>    6.0620    1.0000 </r>
       <r>    6.0620    1.0000 </r>
       <r>    6.8389    1.0311 </r>
       <r>   10.2637   -0.0000 </r>
       <r>   10.2637   -0.0000 </r>
       <r>   11.0410   -0.0000 </r>
       <r>   12.0198   -0.0000 </r>
       <r>   12.0198   -0.0000 </r>
       <r>   12.3567   -0.0000 </r>
       <r>   13.3047    0.0000 </r>
      </set>
      <set comment="kpoint 58">
       <r>   -3.1866    1.0000 </r>
       <r>    2.5078    1.0000 </r>
       <r>    4.1322    1.0000 </r>
       <r>    4.1322    1.0000 </r>
       <r>    6.1757    1.0000 </r>
       <r>    6.1757    1.0000 </r>
       <r>    7.7712   -0.0000 </r>
       <r>    9.5611   -0.0000 </r>
       <r>    9.5611   -0.0000 </r>
       <r>   11.1496   -0.0000 </r>
       <r>   11.4775   -0.0000 </r>
       <r>   11.4775   -0.0000 </r>
       <r>   12.4586   -0.0000 </r>
       <r>   13.4157    0.0000 </r>
      </set>
      <set comment="kpoint 59">
       <r>   -3.0218    1.0000 </r>
       <r>    1.8114    1.0000 </r>
       <r>    4.2876    1.0000 </r>
       <r>    4.2876    1.0000 </r>
       <r>    6.3343    1.0000 </r>
       <r>    6.3343    1.0000 </r>
       <r>    8.7564   -0.0000 </r>
       <r>    8.8909   -0.0000 </r>
       <r>    8.8909   -0.0000 </r>
       <r>   10.8853   -0.0000 </r>
       <r>   10.8853   -0.0000 </r>
       <r>   11.3014   -0.0000 </r>
       <r>   12.6013    0.0000 </r>
       <r>   13.5711    0.0000 </r>
      </set>
      <set comment="kpoint 60">
       <r>   -2.8101    1.0000 </r>
       <r>    1.1528    1.0000 </r>
       <r>    4.4873    1.0000 </r>
       <r>    4.4873    1.0000 </r>
       <r>    6.5376    1.0008 </r>
       <r>    6.5376    1.0008 </r>
       <r>    8.2594   -0.0000 </r>
       <r>    8.2594   -0.0000 </r>
       <r>    9.7856   -0.0000 </r>
       <r>   10.2963   -0.0000 </r>
       <r>   10.2963   -0.0000 </r>
       <r>   11.4965   -0.0000 </r>
       <r>   12.7847    0.0000 </r>
       <r>   13.7704    0.0000 </r>
      </set>
      <set comment="kpoint 61">
       <r>   -2.5519    1.0000 </r>
       <r>    0.5352    1.0000 </r>
       <r>    4.7311    1.0000 </r>
       <r>    4.7311    1.0000 </r>
       <r>    6.7842    1.0336 </r>
       <r>    6.7842    1.0336 </r>
       <r>    7.6698   -0.0001 </r>
       <r>    7.6698   -0.0001 </r>
       <r>    9.7297   -0.0000 </r>
       <r>    9.7297   -0.0000 </r>
       <r>   10.8548   -0.0000 </r>
       <r>   11.7348   -0.0000 </r>
       <r>   13.0090    0.0000 </r>
       <r>   14.0158    0.0000 </r>
      </set>
      <set comment="kpoint 62">
       <r>   -2.2472    1.0000 </r>
       <r>   -0.0397    1.0000 </r>
       <r>    5.0191    1.0000 </r>
       <r>    5.0191    1.0000 </r>
       <r>    7.0418    0.5483 </r>
       <r>    7.0418    0.5483 </r>
       <r>    7.1548    0.1256 </r>
       <r>    7.1548    0.1256 </r>
       <r>    9.1948   -0.0000 </r>
       <r>    9.1948   -0.0000 </r>
       <r>   11.9525   -0.0000 </r>
       <r>   12.0250   -0.0000 </r>
       <r>   13.2741    0.0000 </r>
       <r>   14.0749    0.0000 </r>
      </set>
      <set comment="kpoint 63">
       <r>   -1.8964    1.0000 </r>
       <r>   -0.5710    1.0000 </r>
       <r>    5.3508    1.0000 </r>
       <r>    5.3508    1.0000 </r>
       <r>    6.6078    1.0036 </r>
       <r>    6.6078    1.0036 </r>
       <r>    7.4157   -0.0140 </r>
       <r>    7.4157   -0.0140 </r>
       <r>    8.6979   -0.0000 </r>
       <r>    8.6979   -0.0000 </r>
       <r>   12.3373   -0.0000 </r>
       <r>   13.1054    0.0000 </r>
       <r>   13.5591    0.0000 </r>
       <r>   13.5799    0.0000 </r>
      </set>
      <set comment="kpoint 64">
       <r>   -1.4999    1.0000 </r>
       <r>   -1.0579    1.0000 </r>
       <r>    5.7257    1.0000 </r>
       <r>    5.7257    1.0000 </r>
       <r>    6.1473    1.0000 </r>
       <r>    6.1473    1.0000 </r>
       <r>    7.7753   -0.0000 </r>
       <r>    7.7753   -0.0000 </r>
       <r>    8.2543   -0.0000 </r>
       <r>    8.2543   -0.0000 </r>
       <r>   12.7032    0.0000 </r>
       <r>   13.1105    0.0000 </r>
       <r>   13.9268    0.0000 </r>
       <r>   14.2785    0.0000 </r>
      </set>
      <set comment="kpoint 65">
       <r>   -3.2337    1.0000 </r>
       <r>    3.3010    1.0000 </r>
       <r>    3.3010    1.0000 </r>
       <r>    4.0878    1.0000 </r>
       <r>    6.1302    1.0000 </r>
       <r>    6.9062    0.9716 </r>
       <r>    6.9062    0.9716 </r>
[...]
       <r>    0.6749    1.0000 </r>
       <r>    1.9792    1.0000 </r>
       <r>    1.9792    1.0000 </r>
       <r>    2.8425    1.0000 </r>
       <r>    3.2736    1.0000 </r>
       <r>    4.1304    1.0000 </r>
       <r>    4.1304    1.0000 </r>
       <r>    5.4089    1.0000 </r>
       <r>   14.5796    0.0000 </r>
       <r>   15.3485    0.0000 </r>
       <r>   15.3485    0.0000 </r>
       <r>   15.5427    0.0000 </r>
       <r>   15.5427    0.0000 </r>
       <r>   15.8536    0.0000 </r>
      </set>
      <set comment="kpoint 215">
       <r>    1.0651    1.0000 </r>
       <r>    1.5000    1.0000 </r>
       <r>    2.3663    1.0000 </r>
       <r>    2.7976    1.0000 </r>
       <r>    3.2282    1.0000 </r>
       <r>    3.6574    1.0000 </r>
       <r>    4.5128    1.0000 </r>
       <r>    4.9391    1.0000 </r>
       <r>   14.9089    0.0000 </r>
       <r>   15.2485    0.0000 </r>
       <r>   15.6468    0.0000 </r>
       <r>   15.8788    0.0000 </r>
       <r>   15.8914    0.0000 </r>
       <r>   16.2459    0.0000 </r>
      </set>
      <set comment="kpoint 216">
       <r>    1.4543    1.0000 </r>
       <r>    1.8882    1.0000 </r>
       <r>    1.8882    1.0000 </r>
       <r>    2.3210    1.0000 </r>
       <r>    3.6124    1.0000 </r>
       <r>    4.0408    1.0000 </r>
       <r>    4.0408    1.0000 </r>
       <r>    4.4681    1.0000 </r>
       <r>   15.2387    0.0000 </r>
       <r>   15.5809    0.0000 </r>
       <r>   15.5811    0.0000 </r>
       <r>   15.9303    0.0000 </r>
       <r>   16.5454    0.0000 </r>
       <r>   16.6134    0.0000 </r>
      </set>
      <set comment="kpoint 217">
       <r>    1.0192    1.0000 </r>
       <r>    2.3208    1.0000 </r>
       <r>    2.3208    1.0000 </r>
       <r>    2.3208    1.0000 </r>
       <r>    3.6127    1.0000 </r>
       <r>    3.6127    1.0000 </r>
       <r>    3.6127    1.0000 </r>
       <r>    4.8948    1.0000 </r>
       <r>   15.6352    0.0000 </r>
       <r>   15.6352    0.0000 </r>
       <r>   15.6352    0.0000 </r>
       <r>   16.1586    0.0000 </r>
       <r>   16.1586    0.0000 </r>
       <r>   16.1587    0.0000 </r>
      </set>
      <set comment="kpoint 218">
       <r>    1.4086    1.0000 </r>
       <r>    1.8426    1.0000 </r>
       <r>    2.7069    1.0000 </r>
       <r>    2.7069    1.0000 </r>
       <r>    3.1384    1.0000 </r>
       <r>    3.1384    1.0000 </r>
       <r>    3.9961    1.0000 </r>
       <r>    4.4237    1.0000 </r>
       <r>   15.9309    0.0000 </r>
       <r>   15.9310    0.0000 </r>
       <r>   16.1911    0.0000 </r>
       <r>   16.1912    0.0000 </r>
       <r>   16.5026    0.0000 </r>
       <r>   16.6590    0.0000 </r>
      </set>
      <set comment="kpoint 219">
       <r>    1.7970    1.0000 </r>
       <r>    2.2300    1.0000 </r>
       <r>    2.2300    1.0000 </r>
       <r>    2.6616    1.0000 </r>
       <r>    3.0933    1.0000 </r>
       <r>    3.5227    1.0000 </r>
       <r>    3.5227    1.0000 </r>
       <r>    3.9513    1.0000 </r>
       <r>   16.2384    0.0000 </r>
       <r>   16.5067    0.0000 </r>
       <r>   16.5107    0.0000 </r>
       <r>   16.8229    0.0000 </r>
       <r>   16.8402    0.0000 </r>
       <r>   16.8899    0.0000 </r>
      </set>
      <set comment="kpoint 220">
       <r>    2.1845    1.0000 </r>
       <r>    2.6162    1.0000 </r>
       <r>    2.6162    1.0000 </r>
       <r>    2.6162    1.0000 </r>
       <r>    3.0483    1.0000 </r>
       <r>    3.0483    1.0000 </r>
       <r>    3.0483    1.0000 </r>
       <r>    3.4778    1.0000 </r>
       <r>   17.1398    0.0000 </r>
       <r>   17.1406    0.0000 </r>
       <r>   17.1487    0.0000 </r>
       <r>   17.1639    0.0000 </r>
       <r>   17.1662    0.0000 </r>
       <r>   17.1887    0.0000 </r>
      </set>
     </set>
    </set>
   </array>
  </eigenvalues>
  <separator name="orbital magnetization" >
   <v name="MAGDIPOLOUT">      0.00000000      0.00000000      0.00000000</v>
  </separator>
  <dos>
   <i name="efermi">      7.05324363 </i>
   <total>
    <array>
     <dimension dim="1">gridpoints</dimension>
     <dimension dim="2">spin</dimension>
     <field>energy</field>
     <field>total</field>
     <field>integrated</field>
     <set>
      <set comment="spin 1">
       <r>    -5.4459     0.0000     0.0000 </r>
       <r>    -5.3638     0.0000     0.0000 </r>
       <r>    -5.2816     0.0000     0.0000 </r>
       <r>    -5.1995     0.0000     0.0000 </r>
       <r>    -5.1174    -0.0000    -0.0000 </r>
       <r>    -5.0353    -0.0000    -0.0000 </r>
       <r>    -4.9532    -0.0000    -0.0000 </r>
       <r>    -4.8711    -0.0000    -0.0000 </r>
       <r>    -4.7890    -0.0000    -0.0000 </r>
       <r>    -4.7068    -0.0000    -0.0000 </r>
       <r>    -4.6247    -0.0000    -0.0000 </r>
       <r>    -4.5426    -0.0000    -0.0000 </r>
       <r>    -4.4605    -0.0000    -0.0000 </r>
       <r>    -4.3784    -0.0000    -0.0000 </r>
       <r>    -4.2963    -0.0000    -0.0000 </r>
       <r>    -4.2141    -0.0000    -0.0000 </r>
       <r>    -4.1320    -0.0000    -0.0000 </r>
       <r>    -4.0499    -0.0000    -0.0000 </r>
       <r>    -3.9678    -0.0000    -0.0000 </r>
       <r>    -3.8857    -0.0002    -0.0000 </r>
       <r>    -3.8036    -0.0009    -0.0001 </r>
       <r>    -3.7215    -0.0030    -0.0003 </r>
       <r>    -3.6393    -0.0058    -0.0008 </r>
       <r>    -3.5572    -0.0029    -0.0010 </r>
       <r>    -3.4751     0.0189     0.0005 </r>
       <r>    -3.3930     0.0683     0.0061 </r>
       <r>    -3.3109     0.1362     0.0173 </r>
       <r>    -3.2288     0.2028     0.0340 </r>
       <r>    -3.1466     0.2560     0.0550 </r>
       <r>    -3.0645     0.2969     0.0793 </r>
       <r>    -2.9824     0.3303     0.1065 </r>
       <r>    -2.9003     0.3607     0.1361 </r>
       <r>    -2.8182     0.3902     0.1681 </r>
       <r>    -2.7361     0.4156     0.2023 </r>
       <r>    -2.6540     0.4385     0.2383 </r>
       <r>    -2.5718     0.4656     0.2765 </r>
       <r>    -2.4897     0.4914     0.3168 </r>
       <r>    -2.4076     0.5062     0.3584 </r>
       <r>    -2.3255     0.5230     0.4014 </r>
       <r>    -2.2434     0.5543     0.4469 </r>
       <r>    -2.1613     0.5796     0.4945 </r>
       <r>    -2.0792     0.5839     0.5424 </r>
       <r>    -1.9970     0.5934     0.5912 </r>
       <r>    -1.9149     0.6250     0.6425 </r>
       <r>    -1.8328     0.6563     0.6964 </r>
       <r>    -1.7507     0.6679     0.7512 </r>
       <r>    -1.6686     0.6663     0.8059 </r>
       <r>    -1.5865     0.6711     0.8610 </r>
       <r>    -1.5043     0.7029     0.9187 </r>
       <r>    -1.4222     0.7501     0.9803 </r>
       <r>    -1.3401     0.7643     1.0431 </r>
       <r>    -1.2580     0.7359     1.1035 </r>
       <r>    -1.1759     0.7285     1.1633 </r>
       <r>    -1.0938     0.7772     1.2272 </r>
       <r>    -1.0117     0.8298     1.2953 </r>
       <r>    -0.9295     0.8386     1.3642 </r>
       <r>    -0.8474     0.8227     1.4317 </r>
       <r>    -0.7653     0.8179     1.4989 </r>
       <r>    -0.6832     0.8302     1.5671 </r>
       <r>    -0.6011     0.8539     1.6372 </r>
       <r>    -0.5190     0.8895     1.7102 </r>
       <r>    -0.4368     0.9258     1.7862 </r>
       <r>    -0.3547     0.9390     1.8633 </r>
       <r>    -0.2726     0.9149     1.9385 </r>
       <r>    -0.1905     0.8760     2.0104 </r>
       <r>    -0.1084     0.8838     2.0830 </r>
       <r>    -0.0263     0.9646     2.1622 </r>
       <r>     0.0558     1.0446     2.2480 </r>
       <r>     0.1380     1.0370     2.3331 </r>
       <r>     0.2201     0.9711     2.4129 </r>
       <r>     0.3022     0.9420     2.4902 </r>
       <r>     0.3843     0.9768     2.5704 </r>
       <r>     0.4664     1.0315     2.6551 </r>
       <r>     0.5485     1.0636     2.7425 </r>
       <r>     0.6306     1.0651     2.8299 </r>
       <r>     0.7128     1.0717     2.9179 </r>
       <r>     0.7949     1.1025     3.0084 </r>
       <r>     0.8770     1.1056     3.0992 </r>
       <r>     0.9591     1.0590     3.1862 </r>
       <r>     1.0412     1.0346     3.2711 </r>
       <r>     1.1233     1.0769     3.3596 </r>
       <r>     1.2055     1.1453     3.4536 </r>
       <r>     1.2876     1.2047     3.5525 </r>
       <r>     1.3697     1.2336     3.6538 </r>
       <r>     1.4518     1.1956     3.7520 </r>
       <r>     1.5339     1.1140     3.8435 </r>
       <r>     1.6160     1.0784     3.9320 </r>
       <r>     1.6981     1.1265     4.0245 </r>
       <r>     1.7803     1.2166     4.1245 </r>
       <r>     1.8624     1.2934     4.2307 </r>
       <r>     1.9445     1.3085     4.3381 </r>
       <r>     2.0266     1.2501     4.4408 </r>
       <r>     2.1087     1.1907     4.5385 </r>
       <r>     2.1908     1.2126     4.6381 </r>
       <r>     2.2730     1.2791     4.7431 </r>
       <r>     2.3551     1.2911     4.8492 </r>
       <r>     2.4372     1.2496     4.9518 </r>
       <r>     2.5193     1.2410     5.0537 </r>
       <r>     2.6014     1.2972     5.1602 </r>
       <r>     2.6835     1.3750     5.2731 </r>
       <r>     2.7656     1.4208     5.3898 </r>
       <r>     2.8478     1.4017     5.5049 </r>
       <r>     2.9299     1.3331     5.6143 </r>
       <r>     3.0120     1.2687     5.7185 </r>
       <r>     3.0941     1.2522     5.8214 </r>
       <r>     3.1762     1.3090     5.9288 </r>
       <r>     3.2583     1.4259     6.0459 </r>
       <r>     3.3404     1.5195     6.1707 </r>
       <r>     3.4226     1.5160     6.2952 </r>
       <r>     3.5047     1.4501     6.4143 </r>
       <r>     3.5868     1.4006     6.5293 </r>
       <r>     3.6689     1.3825     6.6428 </r>
       <r>     3.7510     1.3789     6.7560 </r>
       <r>     3.8331     1.4043     6.8713 </r>
       <r>     3.9153     1.4858     6.9933 </r>
       <r>     3.9974     1.5959     7.1244 </r>
       <r>     4.0795     1.6265     7.2580 </r>
       <r>     4.1616     1.5301     7.3836 </r>
       <r>     4.2437     1.4448     7.5022 </r>
       <r>     4.3258     1.5124     7.6264 </r>
       <r>     4.4079     1.6527     7.7621 </r>
       <r>     4.4901     1.7033     7.9020 </r>
       <r>     4.5722     1.6634     8.0386 </r>
       <r>     4.6543     1.6182     8.1715 </r>
       <r>     4.7364     1.5654     8.3000 </r>
       <r>     4.8185     1.4879     8.4222 </r>
       <r>     4.9006     1.4640     8.5424 </r>
       <r>     4.9828     1.5526     8.6699 </r>
       <r>     5.0649     1.6564     8.8059 </r>
       <r>     5.1470     1.6298     8.9397 </r>
       <r>     5.2291     1.4847     9.0617 </r>
       <r>     5.3112     1.3750     9.1746 </r>
       <r>     5.3933     1.3983     9.2894 </r>
       <r>     5.4754     1.4946     9.4121 </r>
       <r>     5.5576     1.5509     9.5395 </r>
       <r>     5.6397     1.5580     9.6674 </r>
       <r>     5.7218     1.5777     9.7970 </r>
       <r>     5.8039     1.5869     9.9273 </r>
       <r>     5.8860     1.5341    10.0532 </r>
       <r>     5.9681     1.4944    10.1760 </r>
       <r>     6.0502     1.5672    10.3046 </r>
       <r>     6.1324     1.6975    10.4440 </r>
       <r>     6.2145     1.7535    10.5880 </r>
       <r>     6.2966     1.7097    10.7284 </r>
       <r>     6.3787     1.6545    10.8643 </r>
       <r>     6.4608     1.6522    10.9999 </r>
       <r>     6.5429     1.6614    11.1364 </r>
       <r>     6.6251     1.6188    11.2693 </r>
       <r>     6.7072     1.5547    11.3970 </r>
       <r>     6.7893     1.5550    11.5247 </r>
       <r>     6.8714     1.6534    11.6604 </r>
       <r>     6.9535     1.8033    11.8085 </r>
       <r>     7.0356     1.9158    11.9658 </r>
       <r>     7.1177     1.9255    12.1239 </r>
       <r>     7.1999     1.8295    12.2742 </r>
       <r>     7.2820     1.6823    12.4123 </r>
       <r>     7.3641     1.5708    12.5413 </r>
       <r>     7.4462     1.5659    12.6699 </r>
       <r>     7.5283     1.6818    12.8080 </r>
       <r>     7.6104     1.8438    12.9594 </r>
       <r>     7.6926     1.9233    13.1173 </r>
       <r>     7.7747     1.8902    13.2725 </r>
       <r>     7.8568     1.8295    13.4228 </r>
       <r>     7.9389     1.7748    13.5685 </r>
       <r>     8.0210     1.7153    13.7093 </r>
       <r>     8.1031     1.7320    13.8516 </r>
       <r>     8.1852     1.8889    14.0067 </r>
       <r>     8.2674     2.0562    14.1755 </r>
       <r>     8.3495     2.0398    14.3430 </r>
       <r>     8.4316     1.8333    14.4936 </r>
       <r>     8.5137     1.6243    14.6269 </r>
       <r>     8.5958     1.5903    14.7575 </r>
       <r>     8.6779     1.7481    14.9011 </r>
       <r>     8.7600     1.9733    15.0631 </r>
       <r>     8.8422     2.1134    15.2366 </r>
       <r>     8.9243     2.0992    15.4090 </r>
       <r>     9.0064     1.9771    15.5714 </r>
       <r>     9.0885     1.8656    15.7246 </r>
       <r>     9.1706     1.8752    15.8785 </r>
       <r>     9.2527     1.9727    16.0405 </r>
       <r>     9.3349     1.9903    16.2040 </r>
       <r>     9.4170     1.8879    16.3590 </r>
       <r>     9.4991     1.8312    16.5094 </r>
       <r>     9.5812     1.9121    16.6664 </r>
       <r>     9.6633     2.0044    16.8310 </r>
       <r>     9.7454     1.9928    16.9946 </r>
       <r>     9.8275     1.9637    17.1559 </r>
       <r>     9.9097     2.0354    17.3230 </r>
       <r>     9.9918     2.1401    17.4987 </r>
       <r>    10.0739     2.1356    17.6741 </r>
       <r>    10.1560     2.0436    17.8419 </r>
       <r>    10.2381     1.9998    18.0061 </r>
       <r>    10.3202     2.0288    18.1727 </r>
       <r>    10.4024     2.0634    18.3422 </r>
       <r>    10.4845     2.0891    18.5137 </r>
       <r>    10.5666     2.0847    18.6849 </r>
       <r>    10.6487     1.9962    18.8488 </r>
       <r>    10.7308     1.9065    19.0053 </r>
       <r>    10.8129     1.9876    19.1686 </r>
       <r>    10.8950     2.2049    19.3496 </r>
       <r>    10.9772     2.3342    19.5413 </r>
       <r>    11.0593     2.2735    19.7280 </r>
       <r>    11.1414     2.1406    19.9038 </r>
       <r>    11.2235     2.1069    20.0768 </r>
       <r>    11.3056     2.1995    20.2574 </r>
       <r>    11.3877     2.2782    20.4444 </r>
       <r>    11.4698     2.2393    20.6283 </r>
       <r>    11.5520     2.1468    20.8046 </r>
       <r>    11.6341     2.1010    20.9771 </r>
       <r>    11.7162     2.1124    21.1506 </r>
       <r>    11.7983     2.1815    21.3297 </r>
       <r>    11.8804     2.3158    21.5199 </r>
       <r>    11.9625     2.4205    21.7186 </r>
       <r>    12.0447     2.4082    21.9164 </r>
       <r>    12.1268     2.3612    22.1103 </r>
       <r>    12.2089     2.3908    22.3066 </r>
       <r>    12.2910     2.4913    22.5112 </r>
       <r>    12.3731     2.6013    22.7248 </r>
       <r>    12.4552     2.6508    22.9425 </r>
       <r>    12.5373     2.5956    23.1556 </r>
       <r>    12.6195     2.4643    23.3580 </r>
       <r>    12.7016     2.3186    23.5483 </r>
       <r>    12.7837     2.2071    23.7296 </r>
       <r>    12.8658     2.1684    23.9076 </r>
       <r>    12.9479     2.2092    24.0890 </r>
       <r>    13.0300     2.2868    24.2768 </r>
       <r>    13.1122     2.3547    24.4702 </r>
       <r>    13.1943     2.3908    24.6665 </r>
       <r>    13.2764     2.3594    24.8602 </r>
       <r>    13.3585     2.2226    25.0427 </r>
       <r>    13.4406     2.0376    25.2101 </r>
       <r>    13.5227     1.9269    25.3683 </r>
       <r>    13.6048     1.9091    25.5251 </r>
       <r>    13.6870     1.8790    25.6794 </r>
       <r>    13.7691     1.7728    25.8249 </r>
       <r>    13.8512     1.6660    25.9617 </r>
       <r>    13.9333     1.6603    26.0981 </r>
       <r>    14.0154     1.7205    26.2393 </r>
       <r>    14.0975     1.7103    26.3798 </r>
       <r>    14.1796     1.5818    26.5097 </r>
       <r>    14.2618     1.4375    26.6277 </r>
       <r>    14.3439     1.3628    26.7396 </r>
       <r>    14.4260     1.2902    26.8456 </r>
       <r>    14.5081     1.1437    26.9395 </r>
       <r>    14.5902     0.9850    27.0204 </r>
       <r>    14.6723     0.8909    27.0935 </r>
       <r>    14.7545     0.8595    27.1641 </r>
       <r>    14.8366     0.8774    27.2361 </r>
       <r>    14.9187     0.8989    27.3100 </r>
       <r>    15.0008     0.8270    27.3779 </r>
       <r>    15.0829     0.6594    27.4320 </r>
       <r>    15.1650     0.5345    27.4759 </r>
       <r>    15.2471     0.5221    27.5188 </r>
       <r>    15.3293     0.5219    27.5616 </r>
       <r>    15.4114     0.4536    27.5989 </r>
       <r>    15.4935     0.3945    27.6313 </r>
       <r>    15.5756     0.4301    27.6666 </r>
       <r>    15.6577     0.4906    27.7069 </r>
       <r>    15.7398     0.4710    27.7456 </r>
       <r>    15.8219     0.4049    27.7788 </r>
       <r>    15.9041     0.3590    27.8083 </r>
       <r>    15.9862     0.3091    27.8337 </r>
       <r>    16.0683     0.2486    27.8541 </r>
       <r>    16.1504     0.2293    27.8729 </r>
       <r>    16.2325     0.2378    27.8924 </r>
       <r>    16.3146     0.2108    27.9097 </r>
       <r>    16.3968     0.1582    27.9227 </r>
       <r>    16.4789     0.1367    27.9340 </r>
       <r>    16.5610     0.1427    27.9457 </r>
       <r>    16.6431     0.1323    27.9565 </r>
       <r>    16.7252     0.1048    27.9651 </r>
       <r>    16.8073     0.0890    27.9725 </r>
       <r>    16.8894     0.0812    27.9791 </r>
       <r>    16.9716     0.0632    27.9843 </r>
       <r>    17.0537     0.0478    27.9882 </r>
       <r>    17.1358     0.0502    27.9924 </r>
       <r>    17.2179     0.0521    27.9966 </r>
       <r>    17.3000     0.0351    27.9995 </r>
       <r>    17.3821     0.0115    28.0005 </r>
       <r>    17.4643    -0.0011    28.0004 </r>
       <r>    17.5464    -0.0028    28.0001 </r>
       <r>    17.6285    -0.0013    28.0000 </r>
       <r>    17.7106    -0.0003    28.0000 </r>
       <r>    17.7927    -0.0001    28.0000 </r>
       <r>    17.8748    -0.0000    28.0000 </r>
       <r>    17.9569    -0.0000    28.0000 </r>
       <r>    18.0391    -0.0000    28.0000 </r>
       <r>    18.1212    -0.0000    28.0000 </r>
       <r>    18.2033    -0.0000    28.0000 </r>
       <r>    18.2854    -0.0000    28.0000 </r>
       <r>    18.3675    -0.0000    28.0000 </r>
       <r>    18.4496    -0.0000    28.0000 </r>
       <r>    18.5317     0.0000    28.0000 </r>
       <r>    18.6139     0.0000    28.0000 </r>
       <r>    18.6960     0.0000    28.0000 </r>
       <r>    18.7781     0.0000    28.0000 </r>
       <r>    18.8602     0.0000    28.0000 </r>
       <r>    18.9423     0.0000    28.0000 </r>
       <r>    19.0244     0.0000    28.0000 </r>
       <r>    19.1066     0.0000    28.0000 </r>
       <r>    19.1887     0.0000    28.0000 </r>
      </set>
     </set>
    </array>
   </total>
  </dos>
 </calculation>
 <structure name="finalpos" >
  <crystal>
   <varray name="basis" >
    <v>       4.16930681       0.00000000       0.00000000 </v>
    <v>      -0.00000000       4.16930681       0.00000000 </v>
    <v>       0.00000000       0.00000000       4.16930681 </v>
   </varray>
   <i name="volume">     72.47555758 </i>
   <varray name="rec_basis" >
    <v>       0.23984802       0.00000000      -0.00000000 </v>
    <v>       0.00000000       0.23984802       0.00000000 </v>
    <v>      -0.00000000      -0.00000000       0.23984802 </v>
   </varray>
  </crystal>
  <varray name="positions" >
   <v>       0.00000000       0.00000000       0.00000000 </v>
   <v>       0.00000000       0.50000000       0.50000000 </v>
   <v>       0.50000000       0.00000000       0.50000000 </v>
   <v>       0.50000000       0.50000000       0.00000000 </v>
  </varray>
 </structure>
</modeling>
