 running   14 mpi-ranks, with    2 threads/rank, on    1 nodes
 distrk:  each k-point on   14 cores,    1 groups
 distr:  one band on    1 cores,   14 groups
 vasp.6.4.2 20Jul23 (build Apr 22 2024 22:35:45) complex                         
 POSCAR found type information on POSCAR Al
 POSCAR found :  1 types and       4 ions
 scaLAPACK will be used
 -----------------------------------------------------------------------------
|                                                                             |
|               ----> ADVICE to this user running VASP <----                  |
|                                                                             |
|     You have a (more or less) 'small supercell' and for smaller cells       |
|     it is recommended to use the reciprocal-space projection scheme!        |
|     The real-space optimization is not efficient for small cells and it     |
|     is also less accurate ...                                               |
|     Therefore, set LREAL=.FALSE. in the INCAR file.                         |
|                                                                             |
 -----------------------------------------------------------------------------

 LDA part: xc-table for Pade appr. of Perdew
 POSCAR, INCAR and KPOINTS ok, starting setup
 FFT: planning ... GRIDC
 FFT: planning ... GRID_SOFT
 FFT: planning ... GRID
 WAVECAR not read
 entering main loop
       N       E                     dE             d eps       ncg     rms          rms(c)
DAV:   1    -0.231228213566E+01   -0.23123E+01   -0.35667E+03  4620   0.505E+02
DAV:   2    -0.138928614406E+02   -0.11581E+02   -0.11255E+02  6776   0.425E+01
DAV:   3    -0.139773422941E+02   -0.84481E-01   -0.84259E-01  6314   0.497E+00
DAV:   4    -0.139775874501E+02   -0.24516E-03   -0.24514E-03  7546   0.268E-01
DAV:   5    -0.139775875876E+02   -0.13752E-06   -0.13764E-06  6538   0.551E-03    0.182E+00
RMM:   6    -0.139332709978E+02    0.44317E-01   -0.95792E-03  4620   0.560E-01    0.108E+00
RMM:   7    -0.139022266588E+02    0.31044E-01   -0.27920E-02  4620   0.932E-01    0.194E-01
RMM:   8    -0.139022161385E+02    0.10520E-04   -0.59623E-04  4620   0.154E-01    0.292E-02
RMM:   9    -0.139022221645E+02   -0.60261E-05   -0.10880E-04  4620   0.624E-02    0.164E-02
RMM:  10    -0.139022252557E+02   -0.30911E-05   -0.29485E-05  4620   0.400E-02    0.608E-03
RMM:  11    -0.139022192239E+02    0.60318E-05   -0.78150E-06  4620   0.167E-02    0.525E-03
RMM:  12    -0.139022201697E+02   -0.94577E-06   -0.21006E-06  3900   0.112E-02
   1 F= -.13902220E+02 E0= -.13902921E+02  d E =-.139022E+02
 curvature:   0.00 expect dE= 0.000E+00 dE for cont linesearch  0.000E+00
 trial: gam= 0.00000 g(F)=  0.102E-63 g(S)=  0.988E-31 ort = 0.000E+00 (trialstep = 0.100E+01)
 search vector abs. value=  0.100E-09
 reached required accuracy - stopping structural energy minimisation
