 vasp.6.4.2 20Jul23 (build Apr 22 2024 22:35:45) complex                         
 executed on             LinuxGNU date 2024.05.26  16:00:05
 running   14 mpi-ranks, with    2 threads/rank, on    1 nodes
 distrk:  each k-point on   14 cores,    1 groups
 distr:  one band on NCORE=   1 cores,   14 groups


--------------------------------------------------------------------------------------------------------


 INCAR:
   ALGO = Fast
   EDIFF = 1e-06
   ENCUT = 400
   IBRION = 2
   ISIF = 4
   ISMEAR = 1
   KSPACING = 0.08
   LCHARG = False
   LREAL = Auto
   LWAVE = False
   NELM = 60
   NELMIN = 4
   NSW = 100
   PREC = Accurate
   SIGMA = 0.2
   SYSTEM = Al fcc relaxation

 POTCAR:    PAW_PBE Al 04Jan2001                  
 POTCAR:    PAW_PBE Al 04Jan2001                  
   SHA256 =  17880443556af62b473fe41b62a467bd001ad55d2cabe504a3f22e34d4e9db96 Al/POTCAR             
   COPYR  = (c) Copyright 04Jan2001 Georg Kresse                                                    
   COPYR  = This file is part of the software VASP. Any use, copying, and all other rights are regul
   COPYR  = If you do not have a valid VASP license, you may not use, copy or distribute this file. 
   VRHFIN =Al: s2p1                                                                                 
   LEXCH  = PE                                                                                      
   EATOM  =    53.5387 eV,    3.9350 Ry                                                             
                                                                                                    
   TITEL  = PAW_PBE Al 04Jan2001                                                                    
   LULTRA =        F    use ultrasoft PP ?                                                          
   IUNSCR =        1    unscreen: 0-lin 1-nonlin 2-no                                               
   RPACOR =    1.500    partial core radius                                                         
   POMASS =   26.981; ZVAL   =    3.000    mass and valenz                                          
   RCORE  =    1.900    outmost cutoff radius                                                       
   RWIGS  =    2.650; RWIGS  =    1.402    wigner-seitz radius (au A)                               
   ENMAX  =  240.300; ENMIN  =  180.225 eV                                                          
   ICORE  =        2    local potential                                                             
   LCOR   =        T    correct aug charges                                                         
   LPAW   =        T    paw PP                                                                      
   EAUG   =  291.052                                                                                
   DEXC   =    0.000                                                                                
   RMAX   =    1.939    core radius for proj-oper                                                   
   RAUG   =    1.300    factor for augmentation sphere                                              
   RDEP   =    1.966    radius for radial grids                                                     
   RDEPT  =    1.856    core radius for aug-charge                                                  
                                                                                                    
   Atomic configuration                                                                             
    6 entries                                                                                       
     n  l   j            E        occ.                                                              
     1  0  0.50     -1511.1048   2.0000                                                             
     2  0  0.50      -108.1629   2.0000                                                             
     2  1  1.50       -69.6402   6.0000                                                             
     3  0  0.50        -7.7528   2.0000                                                             
     3  1  1.50        -2.7121   1.0000                                                             
     3  2  2.50        -2.7212   0.0000                                                             
   Description                                                                                      
     l       E           TYP  RCUT    TYP  RCUT                                                     
     0     -7.7528455     23  1.900                                                                 
     0     -3.3096929     23  1.900                                                                 
     1     -2.7120682     23  1.900                                                                 
     1     13.6058260     23  1.900                                                                 
     2     -2.7211652      7  1.900                                                                 
  local pseudopotential read in
  partial core-charges read in
  partial kinetic energy density read in
  atomic valenz-charges read in
  non local Contribution for L=           0  read in
    real space projection operators read in
  non local Contribution for L=           0  read in
    real space projection operators read in
  non local Contribution for L=           1  read in
    real space projection operators read in
  non local Contribution for L=           1  read in
    real space projection operators read in
    PAW grid and wavefunctions read in

   number of l-projection  operators is LMAX  =           4
   number of lm-projection operators is LMMAX =           8

 -----------------------------------------------------------------------------
|                                                                             |
|               ----> ADVICE to this user running VASP <----                  |
|                                                                             |
|     You have a (more or less) 'small supercell' and for smaller cells       |
|     it is recommended to use the reciprocal-space projection scheme!        |
|     The real-space optimization is not efficient for small cells and it     |
|     is also less accurate ...                                               |
|     Therefore, set LREAL=.FALSE. in the INCAR file.                         |
|                                                                             |
 -----------------------------------------------------------------------------

 Optimization of the real space projectors (new method)

 maximal supplied QI-value         = 19.84
 optimisation between [QCUT,QGAM] = [ 10.12, 20.44] = [ 28.68,116.96] Ry 
 Optimized for a Real-space Cutoff    1.38 Angstroem

   l    n(q)    QCUT    max X(q) W(low)/X(q) W(high)/X(q)  e(spline) 
   0      8    10.119   176.870    0.39E-04    0.93E-04    0.54E-07
   0      8    10.119   105.762    0.37E-04    0.91E-04    0.53E-07
   1      8    10.119    55.370    0.18E-03    0.13E-03    0.19E-06
   1      8    10.119    20.208    0.17E-03    0.12E-03    0.18E-06
  PAW_PBE Al 04Jan2001                  :
 energy of atom  1       EATOM=  -53.5387
 kinetic energy error for atom=    0.0005 (will be added to EATOM!!)


 POSCAR: Al4
  positions in direct lattice
  velocities in cartesian coordinates
 exchange correlation table for  LEXCH =        8
   RHO(1)=    0.500       N(1)  =     2000
   RHO(2)=  100.500       N(2)  =     4000



--------------------------------------------------------------------------------------------------------


 ion  position               nearest neighbor table
   1  0.000  0.000  0.000-   2 3.16   3 3.16   4 3.16   2 3.16   3 3.16   2 3.16   4 3.16   2 3.16
                             3 3.16   4 3.16   3 3.16   4 3.16
   2  0.000  0.500  0.500-   1 3.16   3 3.16   4 3.16   1 3.16   4 3.16   1 3.16   3 3.16   1 3.16
                             3 3.16   4 3.16   4 3.16   3 3.16
   3  0.500  0.000  0.500-   1 3.16   2 3.16   4 3.16   1 3.16   4 3.16   2 3.16   4 3.16   4 3.16
                             1 3.16   2 3.16   1 3.16   2 3.16
   4  0.500  0.500  0.000-   1 3.16   2 3.16   3 3.16   2 3.16   3 3.16   1 3.16   3 3.16   3 3.16
                             1 3.16   2 3.16   2 3.16   1 3.16

  LATTYP: Found a simple cubic cell.
 ALAT       =     4.4638632631
  
  Lattice vectors:
  
 A1 = (   4.4638632631,   0.0000000000,   0.0000000000)
 A2 = (  -0.0000000000,   4.4638632631,   0.0000000000)
 A3 = (   0.0000000000,   0.0000000000,   4.4638632631)


Analysis of symmetry for initial positions (statically):
=====================================================================
 Subroutine PRICEL returns following result:
 
  LATTYP: Found a face centered cubic cell.
 ALAT       =     4.4638632631
  
  Lattice vectors:
  
 A1 = (   2.2319316316,  -2.2319316316,   0.0000000000)
 A2 = (   2.2319316316,   0.0000000000,   2.2319316316)
 A3 = (   0.0000000000,  -2.2319316316,   2.2319316316)
 
   4 primitive cells build up your supercell.
 

 Routine SETGRP: Setting up the symmetry group for a 
 simple cubic supercell.


 Subroutine GETGRP returns: Found 48 space group operations
 (whereof 48 operations were pure point group operations)
 out of a pool of 48 trial point group operations.


The static configuration has the point symmetry O_h .


Analysis of symmetry for dynamics (positions and initial velocities):
=====================================================================
 Subroutine PRICEL returns following result:
 
  LATTYP: Found a face centered cubic cell.
 ALAT       =     4.4638632631
  
  Lattice vectors:
  
 A1 = (   2.2319316316,  -2.2319316316,   0.0000000000)
 A2 = (   2.2319316316,   0.0000000000,   2.2319316316)
 A3 = (   0.0000000000,  -2.2319316316,   2.2319316316)
 
   4 primitive cells build up your supercell.
 

 Routine SETGRP: Setting up the symmetry group for a 
 simple cubic supercell.


 Subroutine GETGRP returns: Found 48 space group operations
 (whereof 48 operations were pure point group operations)
 out of a pool of 48 trial point group operations.


The dynamic configuration has the point symmetry O_h .


 Subroutine INISYM returns: Found 48 space group operations
 (whereof 48 operations are pure point group operations),
 and found     4 'primitive' translations


----------------------------------------------------------------------------------------

                                     Primitive cell                                     

  volume of cell :      22.2368

  direct lattice vectors                    reciprocal lattice vectors
     2.231931632 -2.231931632  0.000000000     0.224021199 -0.224021199 -0.224021199
     2.231931632  0.000000000  2.231931632     0.224021199  0.224021199  0.224021199
     0.000000000 -2.231931632  2.231931632    -0.224021199 -0.224021199  0.224021199

  length of vectors
     3.156427984  3.156427984  3.156427984     0.388016098  0.388016098  0.388016098

  position of ions in fractional coordinates (direct lattice)
     0.000000000  0.000000000  0.000000000

  ion indices of the primitive-cell ions
   primitive index   ion index
                 1           1

----------------------------------------------------------------------------------------



 KPOINTS: Automatic kpoint scheme                 

Automatic generation of k-mesh.
 Grid dimensions read from file:
 generate k-points for:   18   18   18

 Generating k-lattice:

  Cartesian coordinates                     Fractional coordinates (reciprocal lattice)
     0.012445622  0.000000000 -0.000000000     0.055555556  0.000000000  0.000000000
     0.000000000  0.012445622  0.000000000     0.000000000  0.055555556  0.000000000
    -0.000000000 -0.000000000  0.012445622    -0.000000000 -0.000000000  0.055555556

  Length of vectors
     0.012445622  0.012445622  0.012445622

  Shift w.r.t. Gamma in fractional coordinates (k-lattice)
     0.500000000  0.500000000  0.500000000

 
 Subroutine IBZKPT returns following result:
 ===========================================
 
 Found    165 irreducible k-points:
 
 Following reciprocal coordinates:
            Coordinates               Weight
  0.027778  0.027778  0.027778      8.000000
  0.083333  0.027778  0.027778     24.000000
  0.138889  0.027778  0.027778     24.000000
  0.194444  0.027778  0.027778     24.000000
  0.250000  0.027778  0.027778     24.000000
  0.305556  0.027778  0.027778     24.000000
  0.361111  0.027778  0.027778     24.000000
  0.416667  0.027778  0.027778     24.000000
  0.472222  0.027778  0.027778     24.000000
  0.083333  0.083333  0.027778     24.000000
  0.138889  0.083333  0.027778     48.000000
  0.194444  0.083333  0.027778     48.000000
  0.250000  0.083333  0.027778     48.000000
  0.305556  0.083333  0.027778     48.000000
  0.361111  0.083333  0.027778     48.000000
  0.416667  0.083333  0.027778     48.000000
  0.472222  0.083333  0.027778     48.000000
  0.138889  0.138889  0.027778     24.000000
  0.194444  0.138889  0.027778     48.000000
  0.250000  0.138889  0.027778     48.000000
  0.305556  0.138889  0.027778     48.000000
  0.361111  0.138889  0.027778     48.000000
  0.416667  0.138889  0.027778     48.000000
  0.472222  0.138889  0.027778     48.000000
  0.194444  0.194444  0.027778     24.000000
  0.250000  0.194444  0.027778     48.000000
  0.305556  0.194444  0.027778     48.000000
  0.361111  0.194444  0.027778     48.000000
  0.416667  0.194444  0.027778     48.000000
  0.472222  0.194444  0.027778     48.000000
  0.250000  0.250000  0.027778     24.000000
  0.305556  0.250000  0.027778     48.000000
  0.361111  0.250000  0.027778     48.000000
  0.416667  0.250000  0.027778     48.000000
  0.472222  0.250000  0.027778     48.000000
  0.305556  0.305556  0.027778     24.000000
  0.361111  0.305556  0.027778     48.000000
  0.416667  0.305556  0.027778     48.000000
  0.472222  0.305556  0.027778     48.000000
  0.361111  0.361111  0.027778     24.000000
  0.416667  0.361111  0.027778     48.000000
  0.472222  0.361111  0.027778     48.000000
  0.416667  0.416667  0.027778     24.000000
  0.472222  0.416667  0.027778     48.000000
  0.472222  0.472222  0.027778     24.000000
  0.083333  0.083333  0.083333      8.000000
  0.138889  0.083333  0.083333     24.000000
  0.194444  0.083333  0.083333     24.000000
  0.250000  0.083333  0.083333     24.000000
  0.305556  0.083333  0.083333     24.000000
  0.361111  0.083333  0.083333     24.000000
  0.416667  0.083333  0.083333     24.000000
  0.472222  0.083333  0.083333     24.000000
  0.138889  0.138889  0.083333     24.000000
  0.194444  0.138889  0.083333     48.000000
  0.250000  0.138889  0.083333     48.000000
  0.305556  0.138889  0.083333     48.000000
  0.361111  0.138889  0.083333     48.000000
  0.416667  0.138889  0.083333     48.000000
  0.472222  0.138889  0.083333     48.000000
  0.194444  0.194444  0.083333     24.000000
  0.250000  0.194444  0.083333     48.000000
  0.305556  0.194444  0.083333     48.000000
  0.361111  0.194444  0.083333     48.000000
  0.416667  0.194444  0.083333     48.000000
  0.472222  0.194444  0.083333     48.000000
  0.250000  0.250000  0.083333     24.000000
  0.305556  0.250000  0.083333     48.000000
  0.361111  0.250000  0.083333     48.000000
  0.416667  0.250000  0.083333     48.000000
  0.472222  0.250000  0.083333     48.000000
  0.305556  0.305556  0.083333     24.000000
  0.361111  0.305556  0.083333     48.000000
  0.416667  0.305556  0.083333     48.000000
  0.472222  0.305556  0.083333     48.000000
  0.361111  0.361111  0.083333     24.000000
  0.416667  0.361111  0.083333     48.000000
  0.472222  0.361111  0.083333     48.000000
  0.416667  0.416667  0.083333     24.000000
  0.472222  0.416667  0.083333     48.000000
  0.472222  0.472222  0.083333     24.000000
  0.138889  0.138889  0.138889      8.000000
  0.194444  0.138889  0.138889     24.000000
  0.250000  0.138889  0.138889     24.000000
  0.305556  0.138889  0.138889     24.000000
  0.361111  0.138889  0.138889     24.000000
  0.416667  0.138889  0.138889     24.000000
  0.472222  0.138889  0.138889     24.000000
  0.194444  0.194444  0.138889     24.000000
  0.250000  0.194444  0.138889     48.000000
  0.305556  0.194444  0.138889     48.000000
  0.361111  0.194444  0.138889     48.000000
  0.416667  0.194444  0.138889     48.000000
  0.472222  0.194444  0.138889     48.000000
  0.250000  0.250000  0.138889     24.000000
  0.305556  0.250000  0.138889     48.000000
  0.361111  0.250000  0.138889     48.000000
  0.416667  0.250000  0.138889     48.000000
  0.472222  0.250000  0.138889     48.000000
  0.305556  0.305556  0.138889     24.000000
  0.361111  0.305556  0.138889     48.000000
  0.416667  0.305556  0.138889     48.000000
  0.472222  0.305556  0.138889     48.000000
  0.361111  0.361111  0.138889     24.000000
  0.416667  0.361111  0.138889     48.000000
  0.472222  0.361111  0.138889     48.000000
  0.416667  0.416667  0.138889     24.000000
  0.472222  0.416667  0.138889     48.000000
  0.472222  0.472222  0.138889     24.000000
  0.194444  0.194444  0.194444      8.000000
  0.250000  0.194444  0.194444     24.000000
  0.305556  0.194444  0.194444     24.000000
  0.361111  0.194444  0.194444     24.000000
  0.416667  0.194444  0.194444     24.000000
  0.472222  0.194444  0.194444     24.000000
  0.250000  0.250000  0.194444     24.000000
  0.305556  0.250000  0.194444     48.000000
  0.361111  0.250000  0.194444     48.000000
  0.416667  0.250000  0.194444     48.000000
  0.472222  0.250000  0.194444     48.000000
  0.305556  0.305556  0.194444     24.000000
  0.361111  0.305556  0.194444     48.000000
  0.416667  0.305556  0.194444     48.000000
  0.472222  0.305556  0.194444     48.000000
  0.361111  0.361111  0.194444     24.000000
  0.416667  0.361111  0.194444     48.000000
  0.472222  0.361111  0.194444     48.000000
  0.416667  0.416667  0.194444     24.000000
  0.472222  0.416667  0.194444     48.000000
  0.472222  0.472222  0.194444     24.000000
  0.250000  0.250000  0.250000      8.000000
  0.305556  0.250000  0.250000     24.000000
  0.361111  0.250000  0.250000     24.000000
  0.416667  0.250000  0.250000     24.000000
  0.472222  0.250000  0.250000     24.000000
  0.305556  0.305556  0.250000     24.000000
  0.361111  0.305556  0.250000     48.000000
  0.416667  0.305556  0.250000     48.000000
  0.472222  0.305556  0.250000     48.000000
  0.361111  0.361111  0.250000     24.000000
  0.416667  0.361111  0.250000     48.000000
  0.472222  0.361111  0.250000     48.000000
  0.416667  0.416667  0.250000     24.000000
  0.472222  0.416667  0.250000     48.000000
  0.472222  0.472222  0.250000     24.000000
  0.305556  0.305556  0.305556      8.000000
  0.361111  0.305556  0.305556     24.000000
  0.416667  0.305556  0.305556     24.000000
  0.472222  0.305556  0.305556     24.000000
  0.361111  0.361111  0.305556     24.000000
  0.416667  0.361111  0.305556     48.000000
  0.472222  0.361111  0.305556     48.000000
  0.416667  0.416667  0.305556     24.000000
  0.472222  0.416667  0.305556     48.000000
  0.472222  0.472222  0.305556     24.000000
  0.361111  0.361111  0.361111      8.000000
  0.416667  0.361111  0.361111     24.000000
  0.472222  0.361111  0.361111     24.000000
  0.416667  0.416667  0.361111     24.000000
  0.472222  0.416667  0.361111     48.000000
  0.472222  0.472222  0.361111     24.000000
  0.416667  0.416667  0.416667      8.000000
  0.472222  0.416667  0.416667     24.000000
  0.472222  0.472222  0.416667     24.000000
  0.472222  0.472222  0.472222      8.000000
 
 Following cartesian coordinates:
            Coordinates               Weight
  0.006878  0.006878  0.006878      8.000000
  0.020633  0.006878  0.006878     24.000000
  0.034388  0.006878  0.006878     24.000000
  0.048143  0.006878  0.006878     24.000000
  0.061898  0.006878  0.006878     24.000000
  0.075653  0.006878  0.006878     24.000000
  0.089408  0.006878  0.006878     24.000000
  0.103163  0.006878  0.006878     24.000000
  0.116918  0.006878  0.006878     24.000000
  0.020633  0.020633  0.006878     24.000000
  0.034388  0.020633  0.006878     48.000000
  0.048143  0.020633  0.006878     48.000000
  0.061898  0.020633  0.006878     48.000000
  0.075653  0.020633  0.006878     48.000000
  0.089408  0.020633  0.006878     48.000000
  0.103163  0.020633  0.006878     48.000000
  0.116918  0.020633  0.006878     48.000000
  0.034388  0.034388  0.006878     24.000000
  0.048143  0.034388  0.006878     48.000000
  0.061898  0.034388  0.006878     48.000000
  0.075653  0.034388  0.006878     48.000000
  0.089408  0.034388  0.006878     48.000000
  0.103163  0.034388  0.006878     48.000000
  0.116918  0.034388  0.006878     48.000000
  0.048143  0.048143  0.006878     24.000000
  0.061898  0.048143  0.006878     48.000000
  0.075653  0.048143  0.006878     48.000000
  0.089408  0.048143  0.006878     48.000000
  0.103163  0.048143  0.006878     48.000000
  0.116918  0.048143  0.006878     48.000000
  0.061898  0.061898  0.006878     24.000000
  0.075653  0.061898  0.006878     48.000000
  0.089408  0.061898  0.006878     48.000000
  0.103163  0.061898  0.006878     48.000000
  0.116918  0.061898  0.006878     48.000000
  0.075653  0.075653  0.006878     24.000000
  0.089408  0.075653  0.006878     48.000000
  0.103163  0.075653  0.006878     48.000000
  0.116918  0.075653  0.006878     48.000000
  0.089408  0.089408  0.006878     24.000000
  0.103163  0.089408  0.006878     48.000000
  0.116918  0.089408  0.006878     48.000000
  0.103163  0.103163  0.006878     24.000000
  0.116918  0.103163  0.006878     48.000000
  0.116918  0.116918  0.006878     24.000000
  0.020633  0.020633  0.020633      8.000000
  0.034388  0.020633  0.020633     24.000000
  0.048143  0.020633  0.020633     24.000000
  0.061898  0.020633  0.020633     24.000000
  0.075653  0.020633  0.020633     24.000000
  0.089408  0.020633  0.020633     24.000000
  0.103163  0.020633  0.020633     24.000000
  0.116918  0.020633  0.020633     24.000000
  0.034388  0.034388  0.020633     24.000000
  0.048143  0.034388  0.020633     48.000000
  0.061898  0.034388  0.020633     48.000000
  0.075653  0.034388  0.020633     48.000000
  0.089408  0.034388  0.020633     48.000000
  0.103163  0.034388  0.020633     48.000000
  0.116918  0.034388  0.020633     48.000000
  0.048143  0.048143  0.020633     24.000000
  0.061898  0.048143  0.020633     48.000000
  0.075653  0.048143  0.020633     48.000000
  0.089408  0.048143  0.020633     48.000000
  0.103163  0.048143  0.020633     48.000000
  0.116918  0.048143  0.020633     48.000000
  0.061898  0.061898  0.020633     24.000000
  0.075653  0.061898  0.020633     48.000000
  0.089408  0.061898  0.020633     48.000000
  0.103163  0.061898  0.020633     48.000000
  0.116918  0.061898  0.020633     48.000000
  0.075653  0.075653  0.020633     24.000000
  0.089408  0.075653  0.020633     48.000000
  0.103163  0.075653  0.020633     48.000000
  0.116918  0.075653  0.020633     48.000000
  0.089408  0.089408  0.020633     24.000000
  0.103163  0.089408  0.020633     48.000000
  0.116918  0.089408  0.020633     48.000000
  0.103163  0.103163  0.020633     24.000000
  0.116918  0.103163  0.020633     48.000000
  0.116918  0.116918  0.020633     24.000000
  0.034388  0.034388  0.034388      8.000000
  0.048143  0.034388  0.034388     24.000000
  0.061898  0.034388  0.034388     24.000000
  0.075653  0.034388  0.034388     24.000000
  0.089408  0.034388  0.034388     24.000000
  0.103163  0.034388  0.034388     24.000000
  0.116918  0.034388  0.034388     24.000000
  0.048143  0.048143  0.034388     24.000000
  0.061898  0.048143  0.034388     48.000000
  0.075653  0.048143  0.034388     48.000000
  0.089408  0.048143  0.034388     48.000000
  0.103163  0.048143  0.034388     48.000000
  0.116918  0.048143  0.034388     48.000000
  0.061898  0.061898  0.034388     24.000000
  0.075653  0.061898  0.034388     48.000000
  0.089408  0.061898  0.034388     48.000000
  0.103163  0.061898  0.034388     48.000000
  0.116918  0.061898  0.034388     48.000000
  0.075653  0.075653  0.034388     24.000000
  0.089408  0.075653  0.034388     48.000000
  0.103163  0.075653  0.034388     48.000000
  0.116918  0.075653  0.034388     48.000000
  0.089408  0.089408  0.034388     24.000000
  0.103163  0.089408  0.034388     48.000000
  0.116918  0.089408  0.034388     48.000000
  0.103163  0.103163  0.034388     24.000000
  0.116918  0.103163  0.034388     48.000000
  0.116918  0.116918  0.034388     24.000000
  0.048143  0.048143  0.048143      8.000000
  0.061898  0.048143  0.048143     24.000000
  0.075653  0.048143  0.048143     24.000000
  0.089408  0.048143  0.048143     24.000000
  0.103163  0.048143  0.048143     24.000000
  0.116918  0.048143  0.048143     24.000000
  0.061898  0.061898  0.048143     24.000000
  0.075653  0.061898  0.048143     48.000000
  0.089408  0.061898  0.048143     48.000000
  0.103163  0.061898  0.048143     48.000000
  0.116918  0.061898  0.048143     48.000000
  0.075653  0.075653  0.048143     24.000000
  0.089408  0.075653  0.048143     48.000000
  0.103163  0.075653  0.048143     48.000000
  0.116918  0.075653  0.048143     48.000000
  0.089408  0.089408  0.048143     24.000000
  0.103163  0.089408  0.048143     48.000000
  0.116918  0.089408  0.048143     48.000000
  0.103163  0.103163  0.048143     24.000000
  0.116918  0.103163  0.048143     48.000000
  0.116918  0.116918  0.048143     24.000000
  0.061898  0.061898  0.061898      8.000000
  0.075653  0.061898  0.061898     24.000000
  0.089408  0.061898  0.061898     24.000000
  0.103163  0.061898  0.061898     24.000000
  0.116918  0.061898  0.061898     24.000000
  0.075653  0.075653  0.061898     24.000000
  0.089408  0.075653  0.061898     48.000000
  0.103163  0.075653  0.061898     48.000000
  0.116918  0.075653  0.061898     48.000000
  0.089408  0.089408  0.061898     24.000000
  0.103163  0.089408  0.061898     48.000000
  0.116918  0.089408  0.061898     48.000000
  0.103163  0.103163  0.061898     24.000000
  0.116918  0.103163  0.061898     48.000000
  0.116918  0.116918  0.061898     24.000000
  0.075653  0.075653  0.075653      8.000000
  0.089408  0.075653  0.075653     24.000000
  0.103163  0.075653  0.075653     24.000000
  0.116918  0.075653  0.075653     24.000000
  0.089408  0.089408  0.075653     24.000000
  0.103163  0.089408  0.075653     48.000000
  0.116918  0.089408  0.075653     48.000000
  0.103163  0.103163  0.075653     24.000000
  0.116918  0.103163  0.075653     48.000000
  0.116918  0.116918  0.075653     24.000000
  0.089408  0.089408  0.089408      8.000000
  0.103163  0.089408  0.089408     24.000000
  0.116918  0.089408  0.089408     24.000000
  0.103163  0.103163  0.089408     24.000000
  0.116918  0.103163  0.089408     48.000000
  0.116918  0.116918  0.089408     24.000000
  0.103163  0.103163  0.103163      8.000000
  0.116918  0.103163  0.103163     24.000000
  0.116918  0.116918  0.103163     24.000000
  0.116918  0.116918  0.116918      8.000000
 


--------------------------------------------------------------------------------------------------------




 Dimension of arrays:
   k-points           NKPTS =    165   k-points in BZ     NKDIM =    165   number of bands    NBANDS=     14
   number of dos      NEDOS =    301   number of ions     NIONS =      4
   non local maximal  LDIM  =      4   non local SUM 2l+1 LMDIM =      8
   total plane-waves  NPLWV =  27000
   max r-space proj   IRMAX =   3395   max aug-charges    IRDMAX=  12012
   dimension x,y,z NGX =    30 NGY =   30 NGZ =   30
   dimension x,y,z NGXF=    60 NGYF=   60 NGZF=   60
   support grid    NGXF=    60 NGYF=   60 NGZF=   60
   ions per type =               4
   NGX,Y,Z   is equivalent  to a cutoff of  11.17, 11.17, 11.17 a.u.
   NGXF,Y,Z  is equivalent  to a cutoff of  22.35, 22.35, 22.35 a.u.

 SYSTEM =  Al fcc relaxation                       
 POSCAR =  Al4                                     

 Startparameter for this run:
   NWRITE =      2    write-flag & timer
   PREC   = accura    normal or accurate (medium, high low for compatibility)
   ISTART =      0    job   : 0-new  1-cont  2-samecut
   ICHARG =      2    charge: 1-file 2-atom 10-const
   ISPIN  =      1    spin polarized calculation?
   LNONCOLLINEAR =      F non collinear calculations
   LSORBIT =      F    spin-orbit coupling
   INIWAV =      1    electr: 0-lowe 1-rand  2-diag
   LASPH  =      F    aspherical Exc in radial PAW
 Electronic Relaxation 1
   ENCUT  =  400.0 eV  29.40 Ry    5.42 a.u.   7.28  7.28  7.28*2*pi/ulx,y,z
   ENINI  =  400.0     initial cutoff
   ENAUG  =  291.1 eV  augmentation charge cutoff
   NELM   =     60;   NELMIN=  4; NELMDL= -5     # of ELM steps 
   EDIFF  = 0.1E-05   stopping-criterion for ELM
   LREAL  =      T    real-space projection
   NLSPLINE    = F    spline interpolate recip. space projectors
   LCOMPAT=      F    compatible to vasp.4.4
   GGA_COMPAT  = T    GGA compatible to vasp.4.4-vasp.4.6
   LMAXPAW     = -100 max onsite density
   LMAXMIX     =    2 max onsite mixed and CHGCAR
   VOSKOWN=      0    Vosko Wilk Nusair interpolation
   ROPT   =   -0.00025
 Ionic relaxation
   EDIFFG = 0.1E-04   stopping-criterion for IOM
   NSW    =    100    number of steps for IOM
   NBLOCK =      1;   KBLOCK =    100    inner block; outer block 
   IBRION =      2    ionic relax: 0-MD 1-quasi-New 2-CG
   NFREE  =      1    steps in history (QN), initial steepest desc. (CG)
   ISIF   =      4    stress and relaxation
   IWAVPR =     11    prediction:  0-non 1-charg 2-wave 3-comb
   ISYM   =      2    0-nonsym 1-usesym 2-fastsym
   LCORR  =      T    Harris-Foulkes like correction to forces

   POTIM  = 0.5000    time-step for ionic-motion
   TEIN   =    0.0    initial temperature
   TEBEG  =    0.0;   TEEND  =   0.0 temperature during run
   SMASS  =  -3.00    Nose mass-parameter (am)
   estimated Nose-frequenzy (Omega)   =  0.10E-29 period in steps = 0.13E+47 mass=  -0.455E-27a.u.
   SCALEE = 1.0000    scale energy and forces
   NPACO  =    256;   APACO  = 10.0  distance and # of slots for P.C.
   PSTRESS=    0.0 pullay stress

  Mass of Ions in am
   POMASS =  26.98
  Ionic Valenz
   ZVAL   =   3.00
  Atomic Wigner-Seitz radii
   RWIGS  =  -1.00
  virtual crystal weights 
   VCA    =   1.00
   NELECT =      12.0000    total number of electrons
   NUPDOWN=      -1.0000    fix difference up-down

 DOS related values:
   EMIN   =  10.00;   EMAX   =-10.00  energy-range for DOS
   EFERMI =   0.00;   METHOD = LEGACY      
   ISMEAR =     1;   SIGMA  =   0.20  broadening in eV -4-tet -1-fermi 0-gaus

 Electronic relaxation 2 (details)
   IALGO  =     68    algorithm
   LDIAG  =      T    sub-space diagonalisation (order eigenvalues)
   LSUBROT=      F    optimize rotation matrix (better conditioning)
   TURBO    =      0    0=normal 1=particle mesh
   IRESTART =      0    0=no restart 2=restart with 2 vectors
   NREBOOT  =      0    no. of reboots
   NMIN     =      0    reboot dimension
   EREF     =   0.00    reference energy to select bands
   IMIX   =      4    mixing-type and parameters
     AMIX     =   0.40;   BMIX     =  1.00
     AMIX_MAG =   1.60;   BMIX_MAG =  1.00
     AMIN     =   0.10
     WC   =   100.;   INIMIX=   1;  MIXPRE=   1;  MAXMIX= -45

 Intra band minimization:
   WEIMIN = 0.0010     energy-eigenvalue tresh-hold
   EBREAK =  0.18E-07  absolut break condition
   DEPER  =   0.30     relativ break condition  

   TIME   =   0.40     timestep for ELM

  volume/ion in A,a.u.               =      22.24       150.06
  Fermi-wavevector in a.u.,A,eV,Ry     =   0.839636  1.586682  9.591951  0.704989
  Thomas-Fermi vector in A             =   1.953887

 Write flags
   LWAVE        =      F    write WAVECAR
   LDOWNSAMPLE  =      F    k-point downsampling of WAVECAR
   LCHARG       =      F    write CHGCAR
   LVTOT        =      F    write LOCPOT, total local potential
   LVHAR        =      F    write LOCPOT, Hartree potential only
   LELF         =      F    write electronic localiz. function (ELF)
   LORBIT       =      0    0 simple, 1 ext, 2 COOP (PROOUT), +10 PAW based schemes


 Dipole corrections
   LMONO  =      F    monopole corrections only (constant potential shift)
   LDIPOL =      F    correct potential (dipole corrections)
   IDIPOL =      0    1-x, 2-y, 3-z, 4-all directions 
   EPSILON=  1.0000000 bulk dielectric constant

 Exchange correlation treatment:
   GGA     =    --    GGA type
   LEXCH   =     8    internal setting for exchange type
   LIBXC   =     F    Libxc                    
   VOSKOWN =     0    Vosko Wilk Nusair interpolation
   LHFCALC =     F    Hartree Fock is set to
   LHFONE  =     F    Hartree Fock one center treatment
   AEXX    =    0.0000 exact exchange contribution

 Linear response parameters
   LEPSILON=     F    determine dielectric tensor
   LRPA    =     F    only Hartree local field effects (RPA)
   LNABLA  =     F    use nabla operator in PAW spheres
   LVEL    =     F    velocity operator in full k-point grid
   CSHIFT  =0.1000    complex shift for real part using Kramers Kronig
   OMEGAMAX=  -1.0    maximum frequency
   DEG_THRESHOLD= 0.2000000E-02 threshold for treating states as degnerate
   RTIME   =   -0.100 relaxation time in fs
  (WPLASMAI=    0.000 imaginary part of plasma frequency in eV, 0.658/RTIME)
   DFIELD  = 0.0000000 0.0000000 0.0000000 field for delta impulse in time

  Optional k-point grid parameters
   LKPOINTS_OPT  =     F    use optional k-point grid
   KPOINTS_OPT_MODE=     1    mode for optional k-point grid

 Orbital magnetization related:
   ORBITALMAG=     F  switch on orbital magnetization
   LCHIMAG   =     F  perturbation theory with respect to B field
   DQ        =  0.001000  dq finite difference perturbation B field
   LLRAUG    =     F  two centre corrections for induced B field
   LBONE     =     F  B-component reconstruction in AE one-centre
   LVGVCALC  =     T  calculate vGv susceptibility
   LVGVAPPL  =     F  apply vGv susceptibility instead of pGv for G=0

 Random number generation:
   RANDOM_GENERATOR = DEFAULT
   PCG_SEED         = not used


--------------------------------------------------------------------------------------------------------


 conjugate gradient relaxation of ions
 charge density and potential will be updated during run
 non-spin polarized calculation
 RMM-DIIS sequential band-by-band and
  variant of blocked Davidson during initial phase
 perform sub-space diagonalisation
    before iterative eigenvector-optimisation
 modified Broyden-mixing scheme, WC =      100.0
 initial mixing is a Kerker type mixing with AMIX =  0.4000 and BMIX =      1.0000
 Hartree-type preconditioning will be used
 using additional bands            8
 real space projection scheme for non local part
 use partial core corrections
 calculate Harris-corrections to forces   (improved forces if not selfconsistent)
 use gradient corrections 
 use of overlap-Matrix (Vanderbilt PP)
 Methfessel and Paxton  Order N= 1 SIGMA  =   0.20


--------------------------------------------------------------------------------------------------------


  energy-cutoff  :      400.00
  volume of cell :       88.95
      direct lattice vectors                 reciprocal lattice vectors
     4.463863263  0.000000000  0.000000000     0.224021199  0.000000000 -0.000000000
    -0.000000000  4.463863263  0.000000000     0.000000000  0.224021199  0.000000000
     0.000000000  0.000000000  4.463863263    -0.000000000 -0.000000000  0.224021199

  length of vectors
     4.463863263  4.463863263  4.463863263     0.224021199  0.224021199  0.224021199



 k-points in units of 2pi/SCALE and weight: Automatic kpoint scheme                 
   0.00687751  0.00687751  0.00687751       0.001
   0.02063253  0.00687751  0.00687751       0.004
   0.03438755  0.00687751  0.00687751       0.004
   0.04814257  0.00687751  0.00687751       0.004
   0.06189759  0.00687751  0.00687751       0.004
   0.07565261  0.00687751  0.00687751       0.004
   0.08940762  0.00687751  0.00687751       0.004
   0.10316264  0.00687751  0.00687751       0.004
   0.11691766  0.00687751  0.00687751       0.004
   0.02063253  0.02063253  0.00687751       0.004
   0.03438755  0.02063253  0.00687751       0.008
   0.04814257  0.02063253  0.00687751       0.008
   0.06189759  0.02063253  0.00687751       0.008
   0.07565261  0.02063253  0.00687751       0.008
   0.08940762  0.02063253  0.00687751       0.008
   0.10316264  0.02063253  0.00687751       0.008
   0.11691766  0.02063253  0.00687751       0.008
   0.03438755  0.03438755  0.00687751       0.004
   0.04814257  0.03438755  0.00687751       0.008
   0.06189759  0.03438755  0.00687751       0.008
   0.07565261  0.03438755  0.00687751       0.008
   0.08940762  0.03438755  0.00687751       0.008
   0.10316264  0.03438755  0.00687751       0.008
   0.11691766  0.03438755  0.00687751       0.008
   0.04814257  0.04814257  0.00687751       0.004
   0.06189759  0.04814257  0.00687751       0.008
   0.07565261  0.04814257  0.00687751       0.008
   0.08940762  0.04814257  0.00687751       0.008
   0.10316264  0.04814257  0.00687751       0.008
   0.11691766  0.04814257  0.00687751       0.008
   0.06189759  0.06189759  0.00687751       0.004
   0.07565261  0.06189759  0.00687751       0.008
   0.08940762  0.06189759  0.00687751       0.008
   0.10316264  0.06189759  0.00687751       0.008
   0.11691766  0.06189759  0.00687751       0.008
   0.07565261  0.07565261  0.00687751       0.004
   0.08940762  0.07565261  0.00687751       0.008
   0.10316264  0.07565261  0.00687751       0.008
   0.11691766  0.07565261  0.00687751       0.008
   0.08940762  0.08940762  0.00687751       0.004
   0.10316264  0.08940762  0.00687751       0.008
   0.11691766  0.08940762  0.00687751       0.008
   0.10316264  0.10316264  0.00687751       0.004
   0.11691766  0.10316264  0.00687751       0.008
   0.11691766  0.11691766  0.00687751       0.004
   0.02063253  0.02063253  0.02063253       0.001
   0.03438755  0.02063253  0.02063253       0.004
   0.04814257  0.02063253  0.02063253       0.004
   0.06189759  0.02063253  0.02063253       0.004
   0.07565261  0.02063253  0.02063253       0.004
   0.08940762  0.02063253  0.02063253       0.004
   0.10316264  0.02063253  0.02063253       0.004
   0.11691766  0.02063253  0.02063253       0.004
   0.03438755  0.03438755  0.02063253       0.004
   0.04814257  0.03438755  0.02063253       0.008
   0.06189759  0.03438755  0.02063253       0.008
   0.07565261  0.03438755  0.02063253       0.008
   0.08940762  0.03438755  0.02063253       0.008
   0.10316264  0.03438755  0.02063253       0.008
   0.11691766  0.03438755  0.02063253       0.008
   0.04814257  0.04814257  0.02063253       0.004
   0.06189759  0.04814257  0.02063253       0.008
   0.07565261  0.04814257  0.02063253       0.008
   0.08940762  0.04814257  0.02063253       0.008
   0.10316264  0.04814257  0.02063253       0.008
   0.11691766  0.04814257  0.02063253       0.008
   0.06189759  0.06189759  0.02063253       0.004
   0.07565261  0.06189759  0.02063253       0.008
   0.08940762  0.06189759  0.02063253       0.008
   0.10316264  0.06189759  0.02063253       0.008
   0.11691766  0.06189759  0.02063253       0.008
   0.07565261  0.07565261  0.02063253       0.004
   0.08940762  0.07565261  0.02063253       0.008
   0.10316264  0.07565261  0.02063253       0.008
   0.11691766  0.07565261  0.02063253       0.008
   0.08940762  0.08940762  0.02063253       0.004
   0.10316264  0.08940762  0.02063253       0.008
   0.11691766  0.08940762  0.02063253       0.008
   0.10316264  0.10316264  0.02063253       0.004
   0.11691766  0.10316264  0.02063253       0.008
   0.11691766  0.11691766  0.02063253       0.004
   0.03438755  0.03438755  0.03438755       0.001
   0.04814257  0.03438755  0.03438755       0.004
   0.06189759  0.03438755  0.03438755       0.004
   0.07565261  0.03438755  0.03438755       0.004
   0.08940762  0.03438755  0.03438755       0.004
   0.10316264  0.03438755  0.03438755       0.004
   0.11691766  0.03438755  0.03438755       0.004
   0.04814257  0.04814257  0.03438755       0.004
   0.06189759  0.04814257  0.03438755       0.008
   0.07565261  0.04814257  0.03438755       0.008
   0.08940762  0.04814257  0.03438755       0.008
   0.10316264  0.04814257  0.03438755       0.008
   0.11691766  0.04814257  0.03438755       0.008
   0.06189759  0.06189759  0.03438755       0.004
   0.07565261  0.06189759  0.03438755       0.008
   0.08940762  0.06189759  0.03438755       0.008
   0.10316264  0.06189759  0.03438755       0.008
   0.11691766  0.06189759  0.03438755       0.008
   0.07565261  0.07565261  0.03438755       0.004
   0.08940762  0.07565261  0.03438755       0.008
   0.10316264  0.07565261  0.03438755       0.008
   0.11691766  0.07565261  0.03438755       0.008
   0.08940762  0.08940762  0.03438755       0.004
   0.10316264  0.08940762  0.03438755       0.008
   0.11691766  0.08940762  0.03438755       0.008
   0.10316264  0.10316264  0.03438755       0.004
   0.11691766  0.10316264  0.03438755       0.008
   0.11691766  0.11691766  0.03438755       0.004
   0.04814257  0.04814257  0.04814257       0.001
   0.06189759  0.04814257  0.04814257       0.004
   0.07565261  0.04814257  0.04814257       0.004
   0.08940762  0.04814257  0.04814257       0.004
   0.10316264  0.04814257  0.04814257       0.004
   0.11691766  0.04814257  0.04814257       0.004
   0.06189759  0.06189759  0.04814257       0.004
   0.07565261  0.06189759  0.04814257       0.008
   0.08940762  0.06189759  0.04814257       0.008
   0.10316264  0.06189759  0.04814257       0.008
   0.11691766  0.06189759  0.04814257       0.008
   0.07565261  0.07565261  0.04814257       0.004
   0.08940762  0.07565261  0.04814257       0.008
   0.10316264  0.07565261  0.04814257       0.008
   0.11691766  0.07565261  0.04814257       0.008
   0.08940762  0.08940762  0.04814257       0.004
   0.10316264  0.08940762  0.04814257       0.008
   0.11691766  0.08940762  0.04814257       0.008
   0.10316264  0.10316264  0.04814257       0.004
   0.11691766  0.10316264  0.04814257       0.008
   0.11691766  0.11691766  0.04814257       0.004
   0.06189759  0.06189759  0.06189759       0.001
   0.07565261  0.06189759  0.06189759       0.004
   0.08940762  0.06189759  0.06189759       0.004
   0.10316264  0.06189759  0.06189759       0.004
   0.11691766  0.06189759  0.06189759       0.004
   0.07565261  0.07565261  0.06189759       0.004
   0.08940762  0.07565261  0.06189759       0.008
   0.10316264  0.07565261  0.06189759       0.008
   0.11691766  0.07565261  0.06189759       0.008
   0.08940762  0.08940762  0.06189759       0.004
   0.10316264  0.08940762  0.06189759       0.008
   0.11691766  0.08940762  0.06189759       0.008
   0.10316264  0.10316264  0.06189759       0.004
   0.11691766  0.10316264  0.06189759       0.008
   0.11691766  0.11691766  0.06189759       0.004
   0.07565261  0.07565261  0.07565261       0.001
   0.08940762  0.07565261  0.07565261       0.004
   0.10316264  0.07565261  0.07565261       0.004
   0.11691766  0.07565261  0.07565261       0.004
   0.08940762  0.08940762  0.07565261       0.004
   0.10316264  0.08940762  0.07565261       0.008
   0.11691766  0.08940762  0.07565261       0.008
   0.10316264  0.10316264  0.07565261       0.004
   0.11691766  0.10316264  0.07565261       0.008
   0.11691766  0.11691766  0.07565261       0.004
   0.08940762  0.08940762  0.08940762       0.001
   0.10316264  0.08940762  0.08940762       0.004
   0.11691766  0.08940762  0.08940762       0.004
   0.10316264  0.10316264  0.08940762       0.004
   0.11691766  0.10316264  0.08940762       0.008
   0.11691766  0.11691766  0.08940762       0.004
   0.10316264  0.10316264  0.10316264       0.001
   0.11691766  0.10316264  0.10316264       0.004
   0.11691766  0.11691766  0.10316264       0.004
   0.11691766  0.11691766  0.11691766       0.001

 k-points in reciprocal lattice and weights: Automatic kpoint scheme                 
   0.02777778  0.02777778  0.02777778       0.001
   0.08333333  0.02777778  0.02777778       0.004
   0.13888889  0.02777778  0.02777778       0.004
   0.19444444  0.02777778  0.02777778       0.004
   0.25000000  0.02777778  0.02777778       0.004
   0.30555556  0.02777778  0.02777778       0.004
   0.36111111  0.02777778  0.02777778       0.004
   0.41666667  0.02777778  0.02777778       0.004
   0.47222222  0.02777778  0.02777778       0.004
   0.08333333  0.08333333  0.02777778       0.004
   0.13888889  0.08333333  0.02777778       0.008
   0.19444444  0.08333333  0.02777778       0.008
   0.25000000  0.08333333  0.02777778       0.008
   0.30555556  0.08333333  0.02777778       0.008
   0.36111111  0.08333333  0.02777778       0.008
   0.41666667  0.08333333  0.02777778       0.008
   0.47222222  0.08333333  0.02777778       0.008
   0.13888889  0.13888889  0.02777778       0.004
   0.19444444  0.13888889  0.02777778       0.008
   0.25000000  0.13888889  0.02777778       0.008
   0.30555556  0.13888889  0.02777778       0.008
   0.36111111  0.13888889  0.02777778       0.008
   0.41666667  0.13888889  0.02777778       0.008
   0.47222222  0.13888889  0.02777778       0.008
   0.19444444  0.19444444  0.02777778       0.004
   0.25000000  0.19444444  0.02777778       0.008
   0.30555556  0.19444444  0.02777778       0.008
   0.36111111  0.19444444  0.02777778       0.008
   0.41666667  0.19444444  0.02777778       0.008
   0.47222222  0.19444444  0.02777778       0.008
   0.25000000  0.25000000  0.02777778       0.004
   0.30555556  0.25000000  0.02777778       0.008
   0.36111111  0.25000000  0.02777778       0.008
   0.41666667  0.25000000  0.02777778       0.008
   0.47222222  0.25000000  0.02777778       0.008
   0.30555556  0.30555556  0.02777778       0.004
   0.36111111  0.30555556  0.02777778       0.008
   0.41666667  0.30555556  0.02777778       0.008
   0.47222222  0.30555556  0.02777778       0.008
   0.36111111  0.36111111  0.02777778       0.004
   0.41666667  0.36111111  0.02777778       0.008
   0.47222222  0.36111111  0.02777778       0.008
   0.41666667  0.41666667  0.02777778       0.004
   0.47222222  0.41666667  0.02777778       0.008
   0.47222222  0.47222222  0.02777778       0.004
   0.08333333  0.08333333  0.08333333       0.001
   0.13888889  0.08333333  0.08333333       0.004
   0.19444444  0.08333333  0.08333333       0.004
   0.25000000  0.08333333  0.08333333       0.004
   0.30555556  0.08333333  0.08333333       0.004
   0.36111111  0.08333333  0.08333333       0.004
   0.41666667  0.08333333  0.08333333       0.004
   0.47222222  0.08333333  0.08333333       0.004
   0.13888889  0.13888889  0.08333333       0.004
   0.19444444  0.13888889  0.08333333       0.008
   0.25000000  0.13888889  0.08333333       0.008
   0.30555556  0.13888889  0.08333333       0.008
   0.36111111  0.13888889  0.08333333       0.008
   0.41666667  0.13888889  0.08333333       0.008
   0.47222222  0.13888889  0.08333333       0.008
   0.19444444  0.19444444  0.08333333       0.004
   0.25000000  0.19444444  0.08333333       0.008
   0.30555556  0.19444444  0.08333333       0.008
   0.36111111  0.19444444  0.08333333       0.008
   0.41666667  0.19444444  0.08333333       0.008
   0.47222222  0.19444444  0.08333333       0.008
   0.25000000  0.25000000  0.08333333       0.004
   0.30555556  0.25000000  0.08333333       0.008
   0.36111111  0.25000000  0.08333333       0.008
   0.41666667  0.25000000  0.08333333       0.008
   0.47222222  0.25000000  0.08333333       0.008
   0.30555556  0.30555556  0.08333333       0.004
   0.36111111  0.30555556  0.08333333       0.008
   0.41666667  0.30555556  0.08333333       0.008
   0.47222222  0.30555556  0.08333333       0.008
   0.36111111  0.36111111  0.08333333       0.004
   0.41666667  0.36111111  0.08333333       0.008
   0.47222222  0.36111111  0.08333333       0.008
   0.41666667  0.41666667  0.08333333       0.004
   0.47222222  0.41666667  0.08333333       0.008
   0.47222222  0.47222222  0.08333333       0.004
   0.13888889  0.13888889  0.13888889       0.001
   0.19444444  0.13888889  0.13888889       0.004
   0.25000000  0.13888889  0.13888889       0.004
   0.30555556  0.13888889  0.13888889       0.004
   0.36111111  0.13888889  0.13888889       0.004
   0.41666667  0.13888889  0.13888889       0.004
   0.47222222  0.13888889  0.13888889       0.004
   0.19444444  0.19444444  0.13888889       0.004
   0.25000000  0.19444444  0.13888889       0.008
   0.30555556  0.19444444  0.13888889       0.008
   0.36111111  0.19444444  0.13888889       0.008
   0.41666667  0.19444444  0.13888889       0.008
   0.47222222  0.19444444  0.13888889       0.008
   0.25000000  0.25000000  0.13888889       0.004
   0.30555556  0.25000000  0.13888889       0.008
   0.36111111  0.25000000  0.13888889       0.008
   0.41666667  0.25000000  0.13888889       0.008
   0.47222222  0.25000000  0.13888889       0.008
   0.30555556  0.30555556  0.13888889       0.004
   0.36111111  0.30555556  0.13888889       0.008
   0.41666667  0.30555556  0.13888889       0.008
   0.47222222  0.30555556  0.13888889       0.008
   0.36111111  0.36111111  0.13888889       0.004
   0.41666667  0.36111111  0.13888889       0.008
   0.47222222  0.36111111  0.13888889       0.008
   0.41666667  0.41666667  0.13888889       0.004
   0.47222222  0.41666667  0.13888889       0.008
   0.47222222  0.47222222  0.13888889       0.004
   0.19444444  0.19444444  0.19444444       0.001
   0.25000000  0.19444444  0.19444444       0.004
   0.30555556  0.19444444  0.19444444       0.004
   0.36111111  0.19444444  0.19444444       0.004
   0.41666667  0.19444444  0.19444444       0.004
   0.47222222  0.19444444  0.19444444       0.004
   0.25000000  0.25000000  0.19444444       0.004
   0.30555556  0.25000000  0.19444444       0.008
   0.36111111  0.25000000  0.19444444       0.008
   0.41666667  0.25000000  0.19444444       0.008
   0.47222222  0.25000000  0.19444444       0.008
   0.30555556  0.30555556  0.19444444       0.004
   0.36111111  0.30555556  0.19444444       0.008
   0.41666667  0.30555556  0.19444444       0.008
   0.47222222  0.30555556  0.19444444       0.008
   0.36111111  0.36111111  0.19444444       0.004
   0.41666667  0.36111111  0.19444444       0.008
   0.47222222  0.36111111  0.19444444       0.008
   0.41666667  0.41666667  0.19444444       0.004
   0.47222222  0.41666667  0.19444444       0.008
   0.47222222  0.47222222  0.19444444       0.004
   0.25000000  0.25000000  0.25000000       0.001
   0.30555556  0.25000000  0.25000000       0.004
   0.36111111  0.25000000  0.25000000       0.004
   0.41666667  0.25000000  0.25000000       0.004
   0.47222222  0.25000000  0.25000000       0.004
   0.30555556  0.30555556  0.25000000       0.004
   0.36111111  0.30555556  0.25000000       0.008
   0.41666667  0.30555556  0.25000000       0.008
   0.47222222  0.30555556  0.25000000       0.008
   0.36111111  0.36111111  0.25000000       0.004
   0.41666667  0.36111111  0.25000000       0.008
   0.47222222  0.36111111  0.25000000       0.008
   0.41666667  0.41666667  0.25000000       0.004
   0.47222222  0.41666667  0.25000000       0.008
   0.47222222  0.47222222  0.25000000       0.004
   0.30555556  0.30555556  0.30555556       0.001
   0.36111111  0.30555556  0.30555556       0.004
   0.41666667  0.30555556  0.30555556       0.004
   0.47222222  0.30555556  0.30555556       0.004
   0.36111111  0.36111111  0.30555556       0.004
   0.41666667  0.36111111  0.30555556       0.008
   0.47222222  0.36111111  0.30555556       0.008
   0.41666667  0.41666667  0.30555556       0.004
   0.47222222  0.41666667  0.30555556       0.008
   0.47222222  0.47222222  0.30555556       0.004
   0.36111111  0.36111111  0.36111111       0.001
   0.41666667  0.36111111  0.36111111       0.004
   0.47222222  0.36111111  0.36111111       0.004
   0.41666667  0.41666667  0.36111111       0.004
   0.47222222  0.41666667  0.36111111       0.008
   0.47222222  0.47222222  0.36111111       0.004
   0.41666667  0.41666667  0.41666667       0.001
   0.47222222  0.41666667  0.41666667       0.004
   0.47222222  0.47222222  0.41666667       0.004
   0.47222222  0.47222222  0.47222222       0.001

 position of ions in fractional coordinates (direct lattice) 
   0.00000000  0.00000000  0.00000000
   0.00000000  0.50000000  0.50000000
   0.50000000  0.00000000  0.50000000
   0.50000000  0.50000000  0.00000000

 position of ions in cartesian coordinates  (Angst):
   0.00000000  0.00000000  0.00000000
  -0.00000000  2.23193163  2.23193163
   2.23193163  0.00000000  2.23193163
   2.23193163  2.23193163  0.00000000



--------------------------------------------------------------------------------------------------------


 k-point   1 :   0.0278 0.0278 0.0278  plane waves:    1611
 k-point   2 :   0.0833 0.0278 0.0278  plane waves:    1616
 k-point   3 :   0.1389 0.0278 0.0278  plane waves:    1625
 k-point   4 :   0.1944 0.0278 0.0278  plane waves:    1624
 k-point   5 :   0.2500 0.0278 0.0278  plane waves:    1620
 k-point   6 :   0.3056 0.0278 0.0278  plane waves:    1622
 k-point   7 :   0.3611 0.0278 0.0278  plane waves:    1615
 k-point   8 :   0.4167 0.0278 0.0278  plane waves:    1618
 k-point   9 :   0.4722 0.0278 0.0278  plane waves:    1632
 k-point  10 :   0.0833 0.0833 0.0278  plane waves:    1624
 k-point  11 :   0.1389 0.0833 0.0278  plane waves:    1625
 k-point  12 :   0.1944 0.0833 0.0278  plane waves:    1626
 k-point  13 :   0.2500 0.0833 0.0278  plane waves:    1620
 k-point  14 :   0.3056 0.0833 0.0278  plane waves:    1616
 k-point  15 :   0.3611 0.0833 0.0278  plane waves:    1614
 k-point  16 :   0.4167 0.0833 0.0278  plane waves:    1614
 k-point  17 :   0.4722 0.0833 0.0278  plane waves:    1617
 k-point  18 :   0.1389 0.1389 0.0278  plane waves:    1629
 k-point  19 :   0.1944 0.1389 0.0278  plane waves:    1622
 k-point  20 :   0.2500 0.1389 0.0278  plane waves:    1615
 k-point  21 :   0.3056 0.1389 0.0278  plane waves:    1613
 k-point  22 :   0.3611 0.1389 0.0278  plane waves:    1614
 k-point  23 :   0.4167 0.1389 0.0278  plane waves:    1613
 k-point  24 :   0.4722 0.1389 0.0278  plane waves:    1615
 k-point  25 :   0.1944 0.1944 0.0278  plane waves:    1616
 k-point  26 :   0.2500 0.1944 0.0278  plane waves:    1613
 k-point  27 :   0.3056 0.1944 0.0278  plane waves:    1611
 k-point  28 :   0.3611 0.1944 0.0278  plane waves:    1620
 k-point  29 :   0.4167 0.1944 0.0278  plane waves:    1620
 k-point  30 :   0.4722 0.1944 0.0278  plane waves:    1616
 k-point  31 :   0.2500 0.2500 0.0278  plane waves:    1613
 k-point  32 :   0.3056 0.2500 0.0278  plane waves:    1612
 k-point  33 :   0.3611 0.2500 0.0278  plane waves:    1616
 k-point  34 :   0.4167 0.2500 0.0278  plane waves:    1620
 k-point  35 :   0.4722 0.2500 0.0278  plane waves:    1614
 k-point  36 :   0.3056 0.3056 0.0278  plane waves:    1612
 k-point  37 :   0.3611 0.3056 0.0278  plane waves:    1615
 k-point  38 :   0.4167 0.3056 0.0278  plane waves:    1617
 k-point  39 :   0.4722 0.3056 0.0278  plane waves:    1614
 k-point  40 :   0.3611 0.3611 0.0278  plane waves:    1611
 k-point  41 :   0.4167 0.3611 0.0278  plane waves:    1618
 k-point  42 :   0.4722 0.3611 0.0278  plane waves:    1616
 k-point  43 :   0.4167 0.4167 0.0278  plane waves:    1623
 k-point  44 :   0.4722 0.4167 0.0278  plane waves:    1623
 k-point  45 :   0.4722 0.4722 0.0278  plane waves:    1627
 k-point  46 :   0.0833 0.0833 0.0833  plane waves:    1626
 k-point  47 :   0.1389 0.0833 0.0833  plane waves:    1629
 k-point  48 :   0.1944 0.0833 0.0833  plane waves:    1625
 k-point  49 :   0.2500 0.0833 0.0833  plane waves:    1620
 k-point  50 :   0.3056 0.0833 0.0833  plane waves:    1614
 k-point  51 :   0.3611 0.0833 0.0833  plane waves:    1619
 k-point  52 :   0.4167 0.0833 0.0833  plane waves:    1613
 k-point  53 :   0.4722 0.0833 0.0833  plane waves:    1618
 k-point  54 :   0.1389 0.1389 0.0833  plane waves:    1630
 k-point  55 :   0.1944 0.1389 0.0833  plane waves:    1622
 k-point  56 :   0.2500 0.1389 0.0833  plane waves:    1623
 k-point  57 :   0.3056 0.1389 0.0833  plane waves:    1617
 k-point  58 :   0.3611 0.1389 0.0833  plane waves:    1614
 k-point  59 :   0.4167 0.1389 0.0833  plane waves:    1613
 k-point  60 :   0.4722 0.1389 0.0833  plane waves:    1614
 k-point  61 :   0.1944 0.1944 0.0833  plane waves:    1623
 k-point  62 :   0.2500 0.1944 0.0833  plane waves:    1614
 k-point  63 :   0.3056 0.1944 0.0833  plane waves:    1613
 k-point  64 :   0.3611 0.1944 0.0833  plane waves:    1609
 k-point  65 :   0.4167 0.1944 0.0833  plane waves:    1610
 k-point  66 :   0.4722 0.1944 0.0833  plane waves:    1615
 k-point  67 :   0.2500 0.2500 0.0833  plane waves:    1608
 k-point  68 :   0.3056 0.2500 0.0833  plane waves:    1609
 k-point  69 :   0.3611 0.2500 0.0833  plane waves:    1612
 k-point  70 :   0.4167 0.2500 0.0833  plane waves:    1616
 k-point  71 :   0.4722 0.2500 0.0833  plane waves:    1612
 k-point  72 :   0.3056 0.3056 0.0833  plane waves:    1606
 k-point  73 :   0.3611 0.3056 0.0833  plane waves:    1612
 k-point  74 :   0.4167 0.3056 0.0833  plane waves:    1615
 k-point  75 :   0.4722 0.3056 0.0833  plane waves:    1619
 k-point  76 :   0.3611 0.3611 0.0833  plane waves:    1619
 k-point  77 :   0.4167 0.3611 0.0833  plane waves:    1619
 k-point  78 :   0.4722 0.3611 0.0833  plane waves:    1620
 k-point  79 :   0.4167 0.4167 0.0833  plane waves:    1618
 k-point  80 :   0.4722 0.4167 0.0833  plane waves:    1624
 k-point  81 :   0.4722 0.4722 0.0833  plane waves:    1626
 k-point  82 :   0.1389 0.1389 0.1389  plane waves:    1629
 k-point  83 :   0.1944 0.1389 0.1389  plane waves:    1623
 k-point  84 :   0.2500 0.1389 0.1389  plane waves:    1621
 k-point  85 :   0.3056 0.1389 0.1389  plane waves:    1614
 k-point  86 :   0.3611 0.1389 0.1389  plane waves:    1611
 k-point  87 :   0.4167 0.1389 0.1389  plane waves:    1621
 k-point  88 :   0.4722 0.1389 0.1389  plane waves:    1608
 k-point  89 :   0.1944 0.1944 0.1389  plane waves:    1619
 k-point  90 :   0.2500 0.1944 0.1389  plane waves:    1615
 k-point  91 :   0.3056 0.1944 0.1389  plane waves:    1616
 k-point  92 :   0.3611 0.1944 0.1389  plane waves:    1612
 k-point  93 :   0.4167 0.1944 0.1389  plane waves:    1613
 k-point  94 :   0.4722 0.1944 0.1389  plane waves:    1610
 k-point  95 :   0.2500 0.2500 0.1389  plane waves:    1607
 k-point  96 :   0.3056 0.2500 0.1389  plane waves:    1612
 k-point  97 :   0.3611 0.2500 0.1389  plane waves:    1620
 k-point  98 :   0.4167 0.2500 0.1389  plane waves:    1614
 k-point  99 :   0.4722 0.2500 0.1389  plane waves:    1615
 k-point 100 :   0.3056 0.3056 0.1389  plane waves:    1613
 k-point 101 :   0.3611 0.3056 0.1389  plane waves:    1615
 k-point 102 :   0.4167 0.3056 0.1389  plane waves:    1611
 k-point 103 :   0.4722 0.3056 0.1389  plane waves:    1614
 k-point 104 :   0.3611 0.3611 0.1389  plane waves:    1617
 k-point 105 :   0.4167 0.3611 0.1389  plane waves:    1618
 k-point 106 :   0.4722 0.3611 0.1389  plane waves:    1615
 k-point 107 :   0.4167 0.4167 0.1389  plane waves:    1610
 k-point 108 :   0.4722 0.4167 0.1389  plane waves:    1615
 k-point 109 :   0.4722 0.4722 0.1389  plane waves:    1620
 k-point 110 :   0.1944 0.1944 0.1944  plane waves:    1617
 k-point 111 :   0.2500 0.1944 0.1944  plane waves:    1616
 k-point 112 :   0.3056 0.1944 0.1944  plane waves:    1616
 k-point 113 :   0.3611 0.1944 0.1944  plane waves:    1614
 k-point 114 :   0.4167 0.1944 0.1944  plane waves:    1610
 k-point 115 :   0.4722 0.1944 0.1944  plane waves:    1610
 k-point 116 :   0.2500 0.2500 0.1944  plane waves:    1613
 k-point 117 :   0.3056 0.2500 0.1944  plane waves:    1613
 k-point 118 :   0.3611 0.2500 0.1944  plane waves:    1614
 k-point 119 :   0.4167 0.2500 0.1944  plane waves:    1614
 k-point 120 :   0.4722 0.2500 0.1944  plane waves:    1615
 k-point 121 :   0.3056 0.3056 0.1944  plane waves:    1619
 k-point 122 :   0.3611 0.3056 0.1944  plane waves:    1619
 k-point 123 :   0.4167 0.3056 0.1944  plane waves:    1618
 k-point 124 :   0.4722 0.3056 0.1944  plane waves:    1617
 k-point 125 :   0.3611 0.3611 0.1944  plane waves:    1617
 k-point 126 :   0.4167 0.3611 0.1944  plane waves:    1615
 k-point 127 :   0.4722 0.3611 0.1944  plane waves:    1617
 k-point 128 :   0.4167 0.4167 0.1944  plane waves:    1614
 k-point 129 :   0.4722 0.4167 0.1944  plane waves:    1619
 k-point 130 :   0.4722 0.4722 0.1944  plane waves:    1618
 k-point 131 :   0.2500 0.2500 0.2500  plane waves:    1607
 k-point 132 :   0.3056 0.2500 0.2500  plane waves:    1614
 k-point 133 :   0.3611 0.2500 0.2500  plane waves:    1617
 k-point 134 :   0.4167 0.2500 0.2500  plane waves:    1615
 k-point 135 :   0.4722 0.2500 0.2500  plane waves:    1606
 k-point 136 :   0.3056 0.3056 0.2500  plane waves:    1613
 k-point 137 :   0.3611 0.3056 0.2500  plane waves:    1614
 k-point 138 :   0.4167 0.3056 0.2500  plane waves:    1617
 k-point 139 :   0.4722 0.3056 0.2500  plane waves:    1620
 k-point 140 :   0.3611 0.3611 0.2500  plane waves:    1622
 k-point 141 :   0.4167 0.3611 0.2500  plane waves:    1618
 k-point 142 :   0.4722 0.3611 0.2500  plane waves:    1618
 k-point 143 :   0.4167 0.4167 0.2500  plane waves:    1618
 k-point 144 :   0.4722 0.4167 0.2500  plane waves:    1614
 k-point 145 :   0.4722 0.4722 0.2500  plane waves:    1608
 k-point 146 :   0.3056 0.3056 0.3056  plane waves:    1610
 k-point 147 :   0.3611 0.3056 0.3056  plane waves:    1612
 k-point 148 :   0.4167 0.3056 0.3056  plane waves:    1614
 k-point 149 :   0.4722 0.3056 0.3056  plane waves:    1617
 k-point 150 :   0.3611 0.3611 0.3056  plane waves:    1612
 k-point 151 :   0.4167 0.3611 0.3056  plane waves:    1611
 k-point 152 :   0.4722 0.3611 0.3056  plane waves:    1612
 k-point 153 :   0.4167 0.4167 0.3056  plane waves:    1613
 k-point 154 :   0.4722 0.4167 0.3056  plane waves:    1617
 k-point 155 :   0.4722 0.4722 0.3056  plane waves:    1611
 k-point 156 :   0.3611 0.3611 0.3611  plane waves:    1610
 k-point 157 :   0.4167 0.3611 0.3611  plane waves:    1616
 k-point 158 :   0.4722 0.3611 0.3611  plane waves:    1617
 k-point 159 :   0.4167 0.4167 0.3611  plane waves:    1620
 k-point 160 :   0.4722 0.4167 0.3611  plane waves:    1616
 k-point 161 :   0.4722 0.4722 0.3611  plane waves:    1614
 k-point 162 :   0.4167 0.4167 0.4167  plane waves:    1616
 k-point 163 :   0.4722 0.4167 0.4167  plane waves:    1612
 k-point 164 :   0.4722 0.4722 0.4167  plane waves:    1607
 k-point 165 :   0.4722 0.4722 0.4722  plane waves:    1622

 maximum and minimum number of plane-waves per node :      1632     1606

 maximum number of plane-waves:      1632
 maximum index in each direction: 
   IXMAX=    7   IYMAX=    7   IZMAX=    7
   IXMIN=   -7   IYMIN=   -7   IZMIN=   -7


 serial   3D FFT for wavefunctions
 parallel 3D FFT for charge:
    minimum data exchange during FFTs selected (reduces bandwidth)


 total amount of memory used by VASP MPI-rank0    38282. kBytes
=======================================================================

   base      :      30000. kBytes
   nonlr-proj:       1141. kBytes
   fftplans  :        717. kBytes
   grid      :       1977. kBytes
   one-center:         12. kBytes
   wavefun   :       4435. kBytes

     INWAV:  cpu time      0.0001: real time      0.0001
 Broyden mixing: mesh for mixing (old mesh)
   NGX = 15   NGY = 15   NGZ = 15
  (NGX  = 60   NGY  = 60   NGZ  = 60)
  gives a total of   3375 points

 initial charge density was supplied:
 charge density of overlapping atoms calculated
 number of electron      12.0000000 magnetization 
 keeping initial charge density in first step


--------------------------------------------------------------------------------------------------------


 Maximum index for non-local projection operator         1629
 Maximum index for augmentation-charges         1170 (set IRDMAX)


--------------------------------------------------------------------------------------------------------


 First call to EWALD:  gamma=   0.397
 Maximum number of real-space cells 3x 3x 3
 Maximum number of reciprocal cells 3x 3x 3

    FEWALD:  cpu time      0.0023: real time      0.0023


--------------------------------------- Ionic step        1  -------------------------------------------




--------------------------------------- Iteration      1(   1)  ---------------------------------------


    POTLOK:  cpu time      0.0828: real time      0.0429
    SETDIJ:  cpu time      0.0132: real time      0.0052
     EDDAV:  cpu time      8.5504: real time      4.2986
       DOS:  cpu time      0.0038: real time      0.0032
    --------------------------------------------
      LOOP:  cpu time      8.6503: real time      4.3501

 eigenvalue-minimisations  :  4620
 total energy-change (2. order) :-0.2312282E+01  (-0.3566697E+03)
 number of electron      12.0000000 magnetization 
 augmentation part       12.0000000 magnetization 

 Free energy of the ion-electron system (eV)
  ---------------------------------------------------
  alpha Z        PSCENC =        -0.60418892
  Ewald energy   TEWEN  =      -266.22202061
  -Hartree energ DENC   =        -1.29226996
  -exchange      EXHF   =         0.00000000
  -V(xc)+E(xc)   XCENC  =      -106.96627421
  PAW double counting   =       264.80062850     -136.98248303
  entropy T*S    EENTRO =        -0.00252304
  eigenvalues    EBANDS =        30.80423183
  atomic energy  EATOM  =       214.15261729
  Solvation  Ediel_sol  =         0.00000000
  ---------------------------------------------------
  free energy    TOTEN  =        -2.31228214 eV

  energy without entropy =       -2.30975909  energy(sigma->0) =       -2.31144112


--------------------------------------------------------------------------------------------------------




--------------------------------------- Iteration      1(   2)  ---------------------------------------


     EDDAV:  cpu time     12.2789: real time      6.1665
       DOS:  cpu time      0.0021: real time      0.0021
    --------------------------------------------
      LOOP:  cpu time     12.2809: real time      6.1686

 eigenvalue-minimisations  :  6776
 total energy-change (2. order) :-0.1158058E+02  (-0.1125490E+02)
 number of electron      12.0000000 magnetization 
 augmentation part       12.0000000 magnetization 

 Free energy of the ion-electron system (eV)
  ---------------------------------------------------
  alpha Z        PSCENC =        -0.60418892
  Ewald energy   TEWEN  =      -266.22202061
  -Hartree energ DENC   =        -1.29226996
  -exchange      EXHF   =         0.00000000
  -V(xc)+E(xc)   XCENC  =      -106.96627421
  PAW double counting   =       264.80062850     -136.98248303
  entropy T*S    EENTRO =         0.00218878
  eigenvalues    EBANDS =        19.21894071
  atomic energy  EATOM  =       214.15261729
  Solvation  Ediel_sol  =         0.00000000
  ---------------------------------------------------
  free energy    TOTEN  =       -13.89286144 eV

  energy without entropy =      -13.89505022  energy(sigma->0) =      -13.89359103


--------------------------------------------------------------------------------------------------------




--------------------------------------- Iteration      1(   3)  ---------------------------------------


     EDDAV:  cpu time     11.9328: real time      6.0817
       DOS:  cpu time      0.0023: real time      0.0026
    --------------------------------------------
      LOOP:  cpu time     11.9350: real time      6.0843

 eigenvalue-minimisations  :  6314
 total energy-change (2. order) :-0.8448085E-01  (-0.8425909E-01)
 number of electron      12.0000000 magnetization 
 augmentation part       12.0000000 magnetization 

 Free energy of the ion-electron system (eV)
  ---------------------------------------------------
  alpha Z        PSCENC =        -0.60418892
  Ewald energy   TEWEN  =      -266.22202061
  -Hartree energ DENC   =        -1.29226996
  -exchange      EXHF   =         0.00000000
  -V(xc)+E(xc)   XCENC  =      -106.96627421
  PAW double counting   =       264.80062850     -136.98248303
  entropy T*S    EENTRO =         0.00215149
  eigenvalues    EBANDS =        19.13449714
  atomic energy  EATOM  =       214.15261729
  Solvation  Ediel_sol  =         0.00000000
  ---------------------------------------------------
  free energy    TOTEN  =       -13.97734229 eV

  energy without entropy =      -13.97949378  energy(sigma->0) =      -13.97805946


--------------------------------------------------------------------------------------------------------




--------------------------------------- Iteration      1(   4)  ---------------------------------------


     EDDAV:  cpu time     13.8870: real time      7.0184
       DOS:  cpu time      0.0021: real time      0.0023
    --------------------------------------------
      LOOP:  cpu time     13.8891: real time      7.0207

 eigenvalue-minimisations  :  7546
 total energy-change (2. order) :-0.2451561E-03  (-0.2451372E-03)
 number of electron      12.0000000 magnetization 
 augmentation part       12.0000000 magnetization 

 Free energy of the ion-electron system (eV)
  ---------------------------------------------------
  alpha Z        PSCENC =        -0.60418892
  Ewald energy   TEWEN  =      -266.22202061
  -Hartree energ DENC   =        -1.29226996
  -exchange      EXHF   =         0.00000000
  -V(xc)+E(xc)   XCENC  =      -106.96627421
  PAW double counting   =       264.80062850     -136.98248303
  entropy T*S    EENTRO =         0.00215161
  eigenvalues    EBANDS =        19.13425186
  atomic energy  EATOM  =       214.15261729
  Solvation  Ediel_sol  =         0.00000000
  ---------------------------------------------------
  free energy    TOTEN  =       -13.97758745 eV

  energy without entropy =      -13.97973906  energy(sigma->0) =      -13.97830465


--------------------------------------------------------------------------------------------------------




--------------------------------------- Iteration      1(   5)  ---------------------------------------


     EDDAV:  cpu time     11.8267: real time      5.9262
       DOS:  cpu time      0.0046: real time      0.0022
    CHARGE:  cpu time      0.2964: real time      0.1485
    MIXING:  cpu time      0.0009: real time      0.0009
    --------------------------------------------
      LOOP:  cpu time     12.1286: real time      6.0778

 eigenvalue-minimisations  :  6538
 total energy-change (2. order) :-0.1375194E-06  (-0.1376361E-06)
 number of electron      12.0000000 magnetization 
 augmentation part       -0.1788328 magnetization 

 Broyden mixing:
  rms(total) = 0.18214E+00    rms(broyden)= 0.18214E+00
  rms(prec ) = 0.38984E+00
  weight for this iteration     100.00

 Free energy of the ion-electron system (eV)
  ---------------------------------------------------
  alpha Z        PSCENC =        -0.60418892
  Ewald energy   TEWEN  =      -266.22202061
  -Hartree energ DENC   =        -1.29226996
  -exchange      EXHF   =         0.00000000
  -V(xc)+E(xc)   XCENC  =      -106.96627421
  PAW double counting   =       264.80062850     -136.98248303
  entropy T*S    EENTRO =         0.00215161
  eigenvalues    EBANDS =        19.13425173
  atomic energy  EATOM  =       214.15261729
  Solvation  Ediel_sol  =         0.00000000
  ---------------------------------------------------
  free energy    TOTEN  =       -13.97758759 eV

  energy without entropy =      -13.97973920  energy(sigma->0) =      -13.97830479


--------------------------------------------------------------------------------------------------------




--------------------------------------- Iteration      1(   6)  ---------------------------------------


    POTLOK:  cpu time      0.0493: real time      0.0253
    SETDIJ:  cpu time      0.0071: real time      0.0031
    EDDIAG:  cpu time      1.4736: real time      0.7415
  RMM-DIIS:  cpu time      2.9015: real time      1.5600
    ORTHCH:  cpu time      0.1150: real time      0.0585
       DOS:  cpu time      0.0065: real time      0.0025
    CHARGE:  cpu time      0.2972: real time      0.1491
    MIXING:  cpu time      0.0010: real time      0.0009
    --------------------------------------------
      LOOP:  cpu time      4.8512: real time      2.5410

 eigenvalue-minimisations  :  4620
 total energy-change (2. order) : 0.4431659E-01  (-0.9579151E-03)
 number of electron      12.0000000 magnetization 
 augmentation part       -0.1817655 magnetization 

 Broyden mixing:
  rms(total) = 0.10809E+00    rms(broyden)= 0.10809E+00
  rms(prec ) = 0.24024E+00
  weight for this iteration     100.00

 eigenvalues of (default mixing * dielectric matrix)
  average eigenvalue GAMMA=   2.3688
  2.3688

 Free energy of the ion-electron system (eV)
  ---------------------------------------------------
  alpha Z        PSCENC =        -0.60418892
  Ewald energy   TEWEN  =      -266.22202061
  -Hartree energ DENC   =        -0.98555859
  -exchange      EXHF   =         0.00000000
  -V(xc)+E(xc)   XCENC  =      -106.91965125
  PAW double counting   =       313.18071284     -185.32584418
  entropy T*S    EENTRO =         0.00213024
  eigenvalues    EBANDS =        18.78853219
  atomic energy  EATOM  =       214.15261729
  Solvation  Ediel_sol  =         0.00000000
  ---------------------------------------------------
  free energy    TOTEN  =       -13.93327100 eV

  energy without entropy =      -13.93540124  energy(sigma->0) =      -13.93398108


--------------------------------------------------------------------------------------------------------




--------------------------------------- Iteration      1(   7)  ---------------------------------------


    POTLOK:  cpu time      0.0479: real time      0.0241
    SETDIJ:  cpu time      0.0071: real time      0.0032
    EDDIAG:  cpu time      1.4862: real time      0.7425
  RMM-DIIS:  cpu time      2.8841: real time      1.5289
    ORTHCH:  cpu time      0.1111: real time      0.0567
       DOS:  cpu time      0.0065: real time      0.0024
    CHARGE:  cpu time      0.2988: real time      0.1508
    MIXING:  cpu time      0.0052: real time      0.0012
    --------------------------------------------
      LOOP:  cpu time      4.8470: real time      2.5099

 eigenvalue-minimisations  :  4620
 total energy-change (2. order) : 0.3104434E-01  (-0.2792028E-02)
 number of electron      12.0000000 magnetization 
 augmentation part       -0.1869301 magnetization 

 Broyden mixing:
  rms(total) = 0.19394E-01    rms(broyden)= 0.19394E-01
  rms(prec ) = 0.20626E-01
  weight for this iteration     100.00

 eigenvalues of (default mixing * dielectric matrix)
  average eigenvalue GAMMA=   2.6049
  2.6049  2.6049

 Free energy of the ion-electron system (eV)
  ---------------------------------------------------
  alpha Z        PSCENC =        -0.60418892
  Ewald energy   TEWEN  =      -266.22202061
  -Hartree energ DENC   =        -0.64555499
  -exchange      EXHF   =         0.00000000
  -V(xc)+E(xc)   XCENC  =      -106.80061941
  PAW double counting   =       393.52313037     -265.62014584
  entropy T*S    EENTRO =         0.00210167
  eigenvalues    EBANDS =        18.31245379
  atomic energy  EATOM  =       214.15261729
  Solvation  Ediel_sol  =         0.00000000
  ---------------------------------------------------
  free energy    TOTEN  =       -13.90222666 eV

  energy without entropy =      -13.90432833  energy(sigma->0) =      -13.90292721


--------------------------------------------------------------------------------------------------------




--------------------------------------- Iteration      1(   8)  ---------------------------------------


    POTLOK:  cpu time      0.0479: real time      0.0240
    SETDIJ:  cpu time      0.0030: real time      0.0030
    EDDIAG:  cpu time      1.4848: real time      0.7429
  RMM-DIIS:  cpu time      2.8478: real time      1.5148
    ORTHCH:  cpu time      0.1105: real time      0.0557
       DOS:  cpu time      0.0021: real time      0.0022
    CHARGE:  cpu time      0.2953: real time      0.1473
    MIXING:  cpu time      0.0012: real time      0.0012
    --------------------------------------------
      LOOP:  cpu time      4.7927: real time      2.4909

 eigenvalue-minimisations  :  4620
 total energy-change (2. order) : 0.1052036E-04  (-0.5962344E-04)
 number of electron      12.0000000 magnetization 
 augmentation part       -0.1870960 magnetization 

 Broyden mixing:
  rms(total) = 0.29182E-02    rms(broyden)= 0.29181E-02
  rms(prec ) = 0.43901E-02
  weight for this iteration     100.00

 eigenvalues of (default mixing * dielectric matrix)
  average eigenvalue GAMMA=   2.1159
  2.7826  2.6849  0.8801

 Free energy of the ion-electron system (eV)
  ---------------------------------------------------
  alpha Z        PSCENC =        -0.60418892
  Ewald energy   TEWEN  =      -266.22202061
  -Hartree energ DENC   =        -0.65389757
  -exchange      EXHF   =         0.00000000
  -V(xc)+E(xc)   XCENC  =      -106.79249155
  PAW double counting   =       372.13472144     -244.24899074
  entropy T*S    EENTRO =         0.00210225
  eigenvalues    EBANDS =        18.32993228
  atomic energy  EATOM  =       214.15261729
  Solvation  Ediel_sol  =         0.00000000
  ---------------------------------------------------
  free energy    TOTEN  =       -13.90221614 eV

  energy without entropy =      -13.90431839  energy(sigma->0) =      -13.90291689


--------------------------------------------------------------------------------------------------------




--------------------------------------- Iteration      1(   9)  ---------------------------------------


    POTLOK:  cpu time      0.0480: real time      0.0240
    SETDIJ:  cpu time      0.0071: real time      0.0030
    EDDIAG:  cpu time      1.4468: real time      0.7234
  RMM-DIIS:  cpu time      2.8824: real time      1.5495
    ORTHCH:  cpu time      0.1011: real time      0.0525
       DOS:  cpu time      0.0065: real time      0.0025
    CHARGE:  cpu time      0.2968: real time      0.1488
    MIXING:  cpu time      0.0053: real time      0.0013
    --------------------------------------------
      LOOP:  cpu time      4.7940: real time      2.5051

 eigenvalue-minimisations  :  4620
 total energy-change (2. order) :-0.6026052E-05  (-0.1088019E-04)
 number of electron      12.0000000 magnetization 
 augmentation part       -0.1874391 magnetization 

 Broyden mixing:
  rms(total) = 0.16409E-02    rms(broyden)= 0.16409E-02
  rms(prec ) = 0.17190E-02
  weight for this iteration     100.00

 eigenvalues of (default mixing * dielectric matrix)
  average eigenvalue GAMMA=   1.9096
  3.0069  2.6853  0.9730  0.9730

 Free energy of the ion-electron system (eV)
  ---------------------------------------------------
  alpha Z        PSCENC =        -0.60418892
  Ewald energy   TEWEN  =      -266.22202061
  -Hartree energ DENC   =        -0.65082853
  -exchange      EXHF   =         0.00000000
  -V(xc)+E(xc)   XCENC  =      -106.78985611
  PAW double counting   =       369.11670506     -241.23218757
  entropy T*S    EENTRO =         0.00210195
  eigenvalues    EBANDS =        18.32543527
  atomic energy  EATOM  =       214.15261729
  Solvation  Ediel_sol  =         0.00000000
  ---------------------------------------------------
  free energy    TOTEN  =       -13.90222216 eV

  energy without entropy =      -13.90432412  energy(sigma->0) =      -13.90292282


--------------------------------------------------------------------------------------------------------




[...]

 k-point   144 :       0.4722    0.4167    0.2500
  band No.  band energies     occupation 
      1      -0.6524      2.00000
      2      -0.2510      2.00000
      3       0.5449      2.00000
      4       0.9361      2.00000
      5       2.9978      2.00000
      6       3.3835      2.00000
      7       4.1629      2.00000
      8       4.5534      2.00009
      9       9.9273     -0.00000
     10      10.2808     -0.00000
     11      10.9919      0.00000
     12      11.3548      0.00000
     13      12.0987      0.00000
     14      12.2987      0.00000

 k-point   145 :       0.4722    0.4722    0.2500
  band No.  band energies     occupation 
      1      -0.2959      2.00000
      2       0.1036      2.00000
      3       0.1036      2.00000
      4       0.5001      2.00000
      5       3.3401      2.00000
      6       3.7293      2.00000
      7       3.7293      2.00000
      8       4.1197      2.00000
      9      10.2541     -0.00000
     10      10.6113     -0.00000
     11      10.6113     -0.00000
     12      10.9708      0.00000
     13      12.8593      0.00000
     14      12.9449      0.00000

 k-point   146 :       0.3056    0.3056    0.3056
  band No.  band energies     occupation 
      1      -1.9549      2.00000
      2       0.8579      2.00000
      3       0.8579      2.00000
      4       0.8579      2.00000
      5       3.6867      2.00000
      6       3.6867      2.00000
      7       3.6867      2.00000
      8       6.4100     -0.00000
      9       9.4790     -0.00000
     10       9.4790     -0.00000
     11       9.4790     -0.00000
     12      11.4252      0.00000
     13      11.4252      0.00000
     14      11.4252      0.00000

 k-point   147 :       0.3611    0.3056    0.3056
  band No.  band energies     occupation 
      1      -1.6844      2.00000
      2       0.3277      2.00000
      3       1.1150      2.00000
      4       1.1150      2.00000
      5       3.1715      2.00000
      6       3.1715      2.00000
      7       3.9459      2.00000
      8       5.8943     -0.00000
      9       9.7203     -0.00000
     10       9.7203     -0.00000
     11      10.4532     -0.00000
     12      11.3958      0.00000
     13      11.3958      0.00000
     14      11.6643      0.00000

 k-point   148 :       0.4167    0.3056    0.3056
  band No.  band energies     occupation 
      1      -1.3694      2.00000
      2      -0.1611      2.00000
      3       1.4041      2.00000
      4       1.4041      2.00000
      5       2.7100      2.00000
      6       2.7100      2.00000
      7       4.2495      2.00000
      8       5.4197     -0.07086
      9       9.9853     -0.00000
     10       9.9853     -0.00000
     11      11.1185      0.00000
     12      11.1185      0.00000
     13      11.4324      0.00000
     14      11.9421      0.00000

 k-point   149 :       0.4722    0.3056    0.3056
  band No.  band energies     occupation 
      1      -1.0103      2.00000
      2      -0.6073      2.00000
      3       1.6818      2.00000
      4       1.6818      2.00000
      5       2.3460      2.00000
      6       2.3460      2.00000
      7       4.5968      2.00032
      8       4.9871      2.03870
      9      10.2305     -0.00000
     10      10.2305     -0.00000
     11      10.8406      0.00000
     12      10.8406      0.00000
     13      12.2577      0.00000
     14      12.3828      0.00000

 k-point   150 :       0.3611    0.3611    0.3056
  band No.  band energies     occupation 
      1      -1.4146      2.00000
      2       0.5898      2.00000
      3       0.5898      2.00000
      4       1.3594      2.00000
      5       2.6667      2.00000
      6       3.4272      2.00000
      7       3.4272      2.00000
      8       5.3771     -0.04992
      9       9.9697     -0.00000
     10      10.6795      0.00000
     11      10.6795      0.00000
     12      11.6484      0.00000
     13      11.6484      0.00000
     14      11.8973      0.00000

 k-point   151 :       0.4167    0.3611    0.3056
  band No.  band energies     occupation 
      1      -1.1004      2.00000
      2       0.1038      2.00000
      3       0.8916      2.00000
      4       1.5917      2.00000
      5       2.2601      2.00000
      6       2.9547      2.00000
      7       3.7297      2.00000
      8       4.9012      2.06491
      9      10.2482     -0.00000
     10      10.8780      0.00000
     11      11.4332      0.00000
     12      11.5921      0.00000
     13      11.9115      0.00000
     14      11.9901      0.00000

 k-point   152 :       0.4722    0.3611    0.3056
  band No.  band energies     occupation 
      1      -0.7423      2.00000
      2      -0.3406      2.00000
      3       1.2251      2.00000
      4       1.5465      2.00000
      5       2.2171      2.00000
      6       2.5367      2.00000
      7       4.0769      2.00000
      8       4.4676      2.00001
      9      10.5472     -0.00000
     10      10.8256      0.00000
     11      11.4380      0.00000
     12      11.6796      0.00000
     13      12.1483      0.00000
     14      12.5546      0.00000

 k-point   153 :       0.4167    0.4167    0.3056
  band No.  band energies     occupation 
      1      -0.7873      2.00000
      2       0.4108      2.00000
      3       0.4108      2.00000
      4       1.5013      2.00000
      5       2.1740      2.00000
      6       3.2536      2.00000
      7       3.2536      2.00000
      8       4.4245      2.00000
      9      10.5341     -0.00000
     10      11.4775      0.00000
     11      11.4775      0.00000
     12      12.0793      0.00000
     13      12.0794      0.00000
     14      12.4486      0.00000

 k-point   154 :       0.4722    0.4167    0.3056
  band No.  band energies     occupation 
      1      -0.4305      2.00000
      2      -0.0308      2.00000
      3       0.7573      2.00000
      4       1.1354      2.00000
      5       2.4498      2.00000
      6       2.8243      2.00000
      7       3.5997      2.00000
      8       3.9904      2.00000
      9      10.8458      0.00000
     10      11.1732      0.00000
     11      11.8469      0.00000
     12      12.2031      0.00000
     13      12.3022      0.00000
     14      12.4980      0.00000

 k-point   155 :       0.4722    0.4722    0.3056
  band No.  band energies     occupation 
      1      -0.0757      2.00000
      2       0.3211      2.00000
      3       0.3211      2.00000
      4       0.7125      2.00000
      5       2.7808      2.00000
      6       3.1667      2.00000
      7       3.1667      2.00000
      8       3.5563      2.00000
      9      11.1648      0.00000
     10      11.5037      0.00000
     11      11.5037      0.00000
     12      11.8496      0.00000
     13      13.0497      0.00000
     14      13.1197      0.00000

 k-point   156 :       0.3611    0.3611    0.3611
  band No.  band energies     occupation 
      1      -1.1455      2.00000
      2       0.8469      2.00000
      3       0.8469      2.00000
      4       0.8469      2.00000
      5       2.9113      2.00000
      6       2.9113      2.00000
      7       2.9113      2.00000
      8       4.8584      2.04658
      9      10.9303      0.00000
     10      10.9303      0.00000
     11      10.9303      0.00000
     12      12.1330      0.00000
     13      12.1330      0.00000
     14      12.1330      0.00000

 k-point   157 :       0.4167    0.3611    0.3611
  band No.  band energies     occupation 
      1      -0.8323      2.00000
      2       0.3660      2.00000
      3       1.1355      2.00000
      4       1.1355      2.00000
      5       2.4499      2.00000
      6       2.4499      2.00000
      7       3.2103      2.00000
      8       4.3814      2.00000
      9      11.1901      0.00000
     10      11.1901      0.00000
     11      11.8868      0.00000
     12      12.1583      0.00000
     13      12.1583      0.00000
     14      12.4054      0.00000

 k-point   158 :       0.4722    0.3611    0.3611
  band No.  band energies     occupation 
      1      -0.4754      2.00000
      2      -0.0756      2.00000
      3       1.4110      2.00000
      4       1.4110      2.00000
      5       2.0879      2.00000
      6       2.0879      2.00000
      7       3.5564      2.00000
      8       3.9472      2.00000
      9      11.4213      0.00000
     10      11.4213      0.00000
     11      11.9803      0.00000
     12      11.9803      0.00000
     13      12.7132      0.00000
     14      12.7942      0.00000

 k-point   159 :       0.4167    0.4167    0.3611
  band No.  band energies     occupation 
      1      -0.5204      2.00000
      2       0.6678      2.00000
      3       0.6678      2.00000
      4       1.3658      2.00000
      5       2.0448      2.00000
      6       2.7374      2.00000
      7       2.7374      2.00000
      8       3.9039      2.00000
      9      11.4735      0.00000
     10      12.0789      0.00000
     11      12.0790      0.00000
     12      12.4851      0.00000
     13      12.4857      0.00000
     14      12.6677      0.00000

 k-point   160 :       0.4722    0.4167    0.3611
  band No.  band energies     occupation 
      1      -0.1654      2.00000
      2       0.2315      2.00000
      3       1.0009      2.00000
      4       1.3205      2.00000
      5       2.0017      2.00000
      6       2.3195      2.00000
      7       3.0799      2.00000
      8       3.4696      2.00000
      9      11.7610      0.00000
     10      12.0180      0.00000
     11      12.5684      0.00000
     12      12.6313      0.00000
     13      12.7269      0.00000
     14      13.0060      0.00000

 k-point   161 :       0.4722    0.4722    0.3611
  band No.  band energies     occupation 
      1       0.1867      2.00000
      2       0.5782      2.00000
      3       0.5782      2.00000
      4       0.9560      2.00000
      5       2.2760      2.00000
      6       2.6503      2.00000
      7       2.6503      2.00000
      8       3.0363      2.00000
      9      12.0705      0.00000
     10      12.3736      0.00000
     11      12.3736      0.00000
     12      12.6971      0.00000
     13      13.2435      0.00000
     14      13.3147      0.00000

 k-point   162 :       0.4167    0.4167    0.4167
  band No.  band energies     occupation 
      1      -0.2103      2.00000
      2       0.9560      2.00000
      3       0.9560      2.00000
      4       0.9560      2.00000
      5       2.2761      2.00000
      6       2.2761      2.00000
      7       2.2761      2.00000
      8       3.4261      2.00000
      9      12.3933      0.00000
     10      12.3933      0.00000
     11      12.3933      0.00000
     12      12.9266      0.00000
     13      12.9266      0.00000
     14      12.9267      0.00000

 k-point   163 :       0.4722    0.4167    0.4167
  band No.  band energies     occupation 
      1       0.1418      2.00000
      2       0.5334      2.00000
      3       1.2300      2.00000
      4       1.2300      2.00000
      5       1.9155      2.00000
      6       1.9155      2.00000
      7       2.6067      2.00000
      8       2.9928      2.00000
      9      12.6105      0.00000
     10      12.6105      0.00000
     11      13.0182      0.00000
     12      13.0183      0.00000
     13      13.2123      0.00000
     14      13.2253      0.00000

 k-point   164 :       0.4722    0.4722    0.4167
  band No.  band energies     occupation 
      1       0.4885      2.00000
      2       0.8662      2.00000
      3       0.8662      2.00000
      4       1.1847      2.00000
      5       1.8723      2.00000
      6       2.1890      2.00000
      7       2.1890      2.00000
      8       2.5631      2.00000
      9      12.9261      0.00000
     10      13.1460      0.00000
     11      13.1520      0.00000
     12      13.4473      0.00000
     13      13.4731      0.00000
     14      13.5081      0.00000

 k-point   165 :       0.4722    0.4722    0.4722
  band No.  band energies     occupation 
      1       0.8212      2.00000
      2       1.1394      2.00000
      3       1.1394      2.00000
      4       1.1394      2.00000
      5       1.8292      2.00000
      6       1.8292      2.00000
      7       1.8292      2.00000
      8       2.1455      2.00000
      9      13.6103      0.00000
     10      13.6139      0.00000
     11      13.6181      0.00000
     12      13.6782      0.00000
     13      13.6844      0.00000
     14      13.7109      0.00000


--------------------------------------------------------------------------------------------------------


 soft charge-density along one line, spin component           1
         0         1         2         3         4         5         6         7         8         9
 total charge-density along one line

 pseudopotential strength for first ion, spin component:           1
  8.537  14.554   0.000  -0.000  -0.000   0.000  -0.000  -0.000
 14.554  24.815   0.000  -0.000   0.000   0.000  -0.000   0.000
  0.000   0.000   1.977   0.000   0.000   5.723   0.000   0.000
 -0.000  -0.000   0.000   1.977   0.000   0.000   5.723   0.000
 -0.000   0.000   0.000   0.000   1.977   0.000   0.000   5.723
  0.000   0.000   5.723   0.000   0.000  16.468   0.000   0.000
 -0.000  -0.000   0.000   5.723   0.000   0.000  16.468   0.000
 -0.000   0.000   0.000   0.000   5.723   0.000   0.000  16.468
 total augmentation occupancy for first ion, spin component:           1
  2.345  -0.372  -0.000  -0.000   0.000   0.000   0.000   0.000
 -0.372   0.142  -0.000   0.000   0.000  -0.000  -0.000   0.000
 -0.000  -0.000   0.747   0.000  -0.000  -0.040  -0.000   0.000
 -0.000   0.000   0.000   0.747   0.000  -0.000  -0.040  -0.000
  0.000   0.000  -0.000   0.000   0.747   0.000  -0.000  -0.040
  0.000  -0.000  -0.040  -0.000   0.000   0.002   0.000  -0.000
  0.000  -0.000  -0.000  -0.040  -0.000   0.000   0.002   0.000
  0.000   0.000   0.000  -0.000  -0.040  -0.000   0.000   0.002


------------------------ aborting loop because EDIFF is reached ----------------------------------------


    CHARGE:  cpu time      0.2968: real time      0.1495
    FORLOC:  cpu time      0.0006: real time      0.0006
    FORNL :  cpu time      1.7718: real time      0.9268
    STRESS:  cpu time      5.2825: real time      2.7693
    FORCOR:  cpu time      0.0416: real time      0.0216
    FORHAR:  cpu time      0.0151: real time      0.0071
    MIXING:  cpu time      0.0009: real time      0.0009
    OFIELD:  cpu time      0.0000: real time      0.0000

  FORCE on cell =-STRESS in cart. coord.  units (eV):
  Direction    XX          YY          ZZ          XY          YZ          ZX
  --------------------------------------------------------------------------------------
  Alpha Z    -0.60419    -0.60419    -0.60419
  Ewald     -88.74071   -88.74071   -88.74071    -0.00000     0.00000     0.00000
  Hartree     0.21659     0.21659     0.21659    -0.00000    -0.00000    -0.00000
  E(xc)     -31.58418   -31.58418   -31.58418     0.00000    -0.00000    -0.00000
  Local      -4.72240    -4.72240    -4.72240    -0.00000    -0.00000     0.00000
  n-local    73.46916    73.68272    74.51279    -0.23187    -0.28005    -0.24464
  augment    -5.01972    -5.01972    -5.01972     0.00000     0.00000     0.00000
  Kinetic    47.74073    50.15205    53.17542     1.59297    -7.19496    -1.68391
  Fock        0.00000     0.00000     0.00000     0.00000     0.00000     0.00000
  -------------------------------------------------------------------------------------
  Total      -6.21032    -6.21032    -6.21032     0.00000    -0.00000    -0.00000
  in kB    -111.86434  -111.86434  -111.86434     0.00000    -0.00000    -0.00000
  external pressure =     -111.86 kB  Pullay stress =        0.00 kB


 VOLUME and BASIS-vectors are now :
 -----------------------------------------------------------------------------
  energy-cutoff  :      400.00
  volume of cell :       88.95
      direct lattice vectors                 reciprocal lattice vectors
     4.463863263  0.000000000  0.000000000     0.224021199  0.000000000 -0.000000000
    -0.000000000  4.463863263  0.000000000     0.000000000  0.224021199  0.000000000
     0.000000000  0.000000000  4.463863263    -0.000000000 -0.000000000  0.224021199

  length of vectors
     4.463863263  4.463863263  4.463863263     0.224021199  0.224021199  0.224021199


 FORCES acting on ions
    electron-ion (+dipol)            ewald-force                    non-local-force                 convergence-correction
 -----------------------------------------------------------------------------------------------
   0.294E-14 0.972E-15 0.624E-15   -.105E-14 -.106E-15 -.504E-15   -.756E-25 -.475E-24 -.205E-25   -.752E-15 0.866E-16 0.257E-16
   0.337E-14 -.103E-19 -.114E-14   -.109E-14 0.613E-16 0.312E-15   0.401E-24 0.120E-25 0.192E-24   -.702E-15 -.804E-16 -.252E-16
   0.320E-16 0.172E-14 0.442E-14   0.108E-14 -.405E-16 0.304E-15   -.336E-24 -.348E-25 -.957E-25   0.718E-15 0.891E-16 -.122E-16
   0.986E-16 0.130E-13 -.268E-13   0.105E-14 0.127E-15 0.218E-16   0.496E-24 -.696E-24 -.288E-24   0.667E-15 -.920E-16 0.357E-16
 -----------------------------------------------------------------------------------------------
   0.644E-14 0.157E-13 -.229E-13   -.745E-17 0.417E-16 0.134E-15   0.486E-24 -.119E-23 -.212E-24   -.693E-16 0.326E-17 0.240E-16


 POSITION                                       TOTAL-FORCE (eV/Angst)
 -----------------------------------------------------------------------------------
      0.00000      0.00000      0.00000        -0.000000     -0.000000      0.000000
     -0.00000      2.23193      2.23193         0.000000      0.000000     -0.000000
      2.23193      0.00000      2.23193        -0.000000      0.000000      0.000000
      2.23193      2.23193      0.00000         0.000000     -0.000000     -0.000000
 -----------------------------------------------------------------------------------
    total drift:                                0.000000      0.000000     -0.000000


--------------------------------------------------------------------------------------------------------



  FREE ENERGIE OF THE ION-ELECTRON SYSTEM (eV)
  ---------------------------------------------------
  free  energy   TOTEN  =       -13.90222017 eV

  energy  without entropy=      -13.90432211  energy(sigma->0) =      -13.90292082



--------------------------------------------------------------------------------------------------------


    POTLOK:  cpu time      0.0560: real time      0.0282


--------------------------------------------------------------------------------------------------------




--------------------------------------------------------------------------------------------------------


  
 reached required accuracy - stopping structural energy minimisation
     LOOP+:  cpu time     99.4802: real time     51.1829
    4ORBIT:  cpu time      0.0000: real time      0.0000

 total amount of memory used by VASP MPI-rank0    38282. kBytes
=======================================================================

   base      :      30000. kBytes
   nonlr-proj:       1141. kBytes
   fftplans  :        717. kBytes
   grid      :       1977. kBytes
   one-center:         12. kBytes
   wavefun   :       4435. kBytes

  
  
 General timing and accounting informations for this job:
 ========================================================
  
                  Total CPU time used (sec):      103.197
                            User time (sec):      101.796
                          System time (sec):        1.401
                         Elapsed time (sec):       54.372
  
                   Maximum memory used (kb):       60928.
                   Average memory used (kb):          N/A
  
                          Minor page faults:        32406
                          Major page faults:           13
                 Voluntary context switches:         2086
