<?xml version="1.0" encoding="ISO-8859-1"?>
<modeling>
 <generator>
  <i name="program" type="string">vasp </i>
  <i name="version" type="string">6.4.2  </i>
  <i name="subversion" type="string">20Jul23 (build Apr 22 2024 22:35:45) complex                          parallel </i>
  <i name="platform" type="string">LinuxGNU </i>
  <i name="date" type="string">2024 05 26 </i>
  <i name="time" type="string">16:00:05 </i>
 </generator>
 <incar>
  <i type="string" name="SYSTEM">Al fcc relaxation</i>
  <i type="string" name="PREC">Accurate</i>
  <i type="string" name="ALGO">Fast</i>
  <i type="int" name="NELM">    60</i>
  <i type="int" name="NELMIN">     4</i>
  <i type="int" name="IBRION">     2</i>
  <i name="EDIFF">      0.00000100</i>
  <i type="int" name="NSW">   100</i>
  <i type="int" name="ISIF">     4</i>
  <i name="ENCUT">    400.00000000</i>
  <i type="string" name="LREAL">Auto</i>
  <i type="int" name="ISMEAR">     1</i>
  <i name="SIGMA">      0.20000000</i>
  <i name="KSPACING">      0.08000000</i>
  <i type="logical" name="LWAVE"> F  </i>
  <i type="logical" name="LCHARG"> F  </i>
 </incar>
 <primitive_cell>
  <structure name="primitive_cell" >
   <crystal>
    <varray name="basis" >
     <v>       2.23193163      -2.23193163       0.00000000 </v>
     <v>       2.23193163       0.00000000       2.23193163 </v>
     <v>       0.00000000      -2.23193163       2.23193163 </v>
    </varray>
    <i name="volume">     22.23681880 </i>
    <varray name="rec_basis" >
     <v>       0.22402120      -0.22402120      -0.22402120 </v>
     <v>       0.22402120       0.22402120       0.22402120 </v>
     <v>      -0.22402120      -0.22402120       0.22402120 </v>
    </varray>
   </crystal>
   <varray name="positions" >
    <v>       0.00000000       0.00000000       0.00000000 </v>
   </varray>
  </structure>
  <varray name="primitive_index" >
   <v type="int" >        1 </v>
  </varray>
 </primitive_cell>
 <kpoints>
  <generation param="Monkhorst-Pack">
   <v type="int" name="divisions">      18       18       18 </v>
   <v name="usershift">      0.00000000       0.00000000       0.00000000 </v>
   <v name="genvec1">      0.05555556       0.00000000       0.00000000 </v>
   <v name="genvec2">      0.00000000       0.05555556       0.00000000 </v>
   <v name="genvec3">     -0.00000000      -0.00000000       0.05555556 </v>
   <v name="shift">      0.50000000       0.50000000       0.50000000 </v>
  </generation>
  <varray name="kpointlist" >
   <v>       0.02777778       0.02777778       0.02777778 </v>
   <v>       0.08333333       0.02777778       0.02777778 </v>
   <v>       0.13888889       0.02777778       0.02777778 </v>
   <v>       0.19444444       0.02777778       0.02777778 </v>
   <v>       0.25000000       0.02777778       0.02777778 </v>
   <v>       0.30555556       0.02777778       0.02777778 </v>
   <v>       0.36111111       0.02777778       0.02777778 </v>
   <v>       0.41666667       0.02777778       0.02777778 </v>
   <v>       0.47222222       0.02777778       0.02777778 </v>
   <v>       0.08333333       0.08333333       0.02777778 </v>
   <v>       0.13888889       0.08333333       0.02777778 </v>
   <v>       0.19444444       0.08333333       0.02777778 </v>
   <v>       0.25000000       0.08333333       0.02777778 </v>
   <v>       0.30555556       0.08333333       0.02777778 </v>
   <v>       0.36111111       0.08333333       0.02777778 </v>
   <v>       0.41666667       0.08333333       0.02777778 </v>
   <v>       0.47222222       0.08333333       0.02777778 </v>
   <v>       0.13888889       0.13888889       0.02777778 </v>
   <v>       0.19444444       0.13888889       0.02777778 </v>
   <v>       0.25000000       0.13888889       0.02777778 </v>
   <v>       0.30555556       0.13888889       0.02777778 </v>
   <v>       0.36111111       0.13888889       0.02777778 </v>
   <v>       0.41666667       0.13888889       0.02777778 </v>
   <v>       0.47222222       0.13888889       0.02777778 </v>
   <v>       0.19444444       0.19444444       0.02777778 </v>
   <v>       0.25000000       0.19444444       0.02777778 </v>
   <v>       0.30555556       0.19444444       0.02777778 </v>
   <v>       0.36111111       0.19444444       0.02777778 </v>
   <v>       0.41666667       0.19444444       0.02777778 </v>
   <v>       0.47222222       0.19444444       0.02777778 </v>
   <v>       0.25000000       0.25000000       0.02777778 </v>
   <v>       0.30555556       0.25000000       0.02777778 </v>
   <v>       0.36111111       0.25000000       0.02777778 </v>
   <v>       0.41666667       0.25000000       0.02777778 </v>
   <v>       0.47222222       0.25000000       0.02777778 </v>
   <v>       0.30555556       0.30555556       0.02777778 </v>
   <v>       0.36111111       0.30555556       0.02777778 </v>
   <v>       0.41666667       0.30555556       0.02777778 </v>
   <v>       0.47222222       0.30555556       0.02777778 </v>
   <v>       0.36111111       0.36111111       0.02777778 </v>
   <v>       0.41666667       0.36111111       0.02777778 </v>
   <v>       0.47222222       0.36111111       0.02777778 </v>
   <v>       0.41666667       0.41666667       0.02777778 </v>
   <v>       0.47222222       0.41666667       0.02777778 </v>
   <v>       0.47222222       0.47222222       0.02777778 </v>
   <v>       0.08333333       0.08333333       0.08333333 </v>
   <v>       0.13888889       0.08333333       0.08333333 </v>
   <v>       0.19444444       0.08333333       0.08333333 </v>
   <v>       0.25000000       0.08333333       0.08333333 </v>
   <v>       0.30555556       0.08333333       0.08333333 </v>
   <v>       0.36111111       0.08333333       0.08333333 </v>
   <v>       0.41666667       0.08333333       0.08333333 </v>
   <v>       0.47222222       0.08333333       0.08333333 </v>
   <v>       0.13888889       0.13888889       0.08333333 </v>
   <v>       0.19444444       0.13888889       0.08333333 </v>
   <v>       0.25000000       0.13888889       0.08333333 </v>
   <v>       0.30555556       0.13888889       0.08333333 </v>
   <v>       0.36111111       0.13888889       0.08333333 </v>
   <v>       0.41666667       0.13888889       0.08333333 </v>
   <v>       0.47222222       0.13888889       0.08333333 </v>
   <v>       0.19444444       0.19444444       0.08333333 </v>
   <v>       0.25000000       0.19444444       0.08333333 </v>
   <v>       0.30555556       0.19444444       0.08333333 </v>
   <v>       0.36111111       0.19444444       0.08333333 </v>
   <v>       0.41666667       0.19444444       0.08333333 </v>
   <v>       0.47222222       0.19444444       0.08333333 </v>
   <v>       0.25000000       0.25000000       0.08333333 </v>
   <v>       0.30555556       0.25000000       0.08333333 </v>
   <v>       0.36111111       0.25000000       0.08333333 </v>
   <v>       0.41666667       0.25000000       0.08333333 </v>
   <v>       0.47222222       0.25000000       0.08333333 </v>
   <v>       0.30555556       0.30555556       0.08333333 </v>
   <v>       0.36111111       0.30555556       0.08333333 </v>
   <v>       0.41666667       0.30555556       0.08333333 </v>
   <v>       0.47222222       0.30555556       0.08333333 </v>
   <v>       0.36111111       0.36111111       0.08333333 </v>
   <v>       0.41666667       0.36111111       0.08333333 </v>
   <v>       0.47222222       0.36111111       0.08333333 </v>
   <v>       0.41666667       0.41666667       0.08333333 </v>
   <v>       0.47222222       0.41666667       0.08333333 </v>
   <v>       0.47222222       0.47222222       0.08333333 </v>
   <v>       0.13888889       0.13888889       0.13888889 </v>
   <v>       0.19444444       0.13888889       0.13888889 </v>
   <v>       0.25000000       0.13888889       0.13888889 </v>
   <v>       0.30555556       0.13888889       0.13888889 </v>
   <v>       0.36111111       0.13888889       0.13888889 </v>
   <v>       0.41666667       0.13888889       0.13888889 </v>
   <v>       0.47222222       0.13888889       0.13888889 </v>
   <v>       0.19444444       0.19444444       0.13888889 </v>
   <v>       0.25000000       0.19444444       0.13888889 </v>
   <v>       0.30555556       0.19444444       0.13888889 </v>
   <v>       0.36111111       0.19444444       0.13888889 </v>
   <v>       0.41666667       0.19444444       0.13888889 </v>
   <v>       0.47222222       0.19444444       0.13888889 </v>
   <v>       0.25000000       0.25000000       0.13888889 </v>
   <v>       0.30555556       0.25000000       0.13888889 </v>
   <v>       0.36111111       0.25000000       0.13888889 </v>
   <v>       0.41666667       0.25000000       0.13888889 </v>
   <v>       0.47222222       0.25000000       0.13888889 </v>
   <v>       0.30555556       0.30555556       0.13888889 </v>
   <v>       0.36111111       0.30555556       0.13888889 </v>
   <v>       0.41666667       0.30555556       0.13888889 </v>
   <v>       0.47222222       0.30555556       0.13888889 </v>
   <v>       0.36111111       0.36111111       0.13888889 </v>
   <v>       0.41666667       0.36111111       0.13888889 </v>
   <v>       0.47222222       0.36111111       0.13888889 </v>
   <v>       0.41666667       0.41666667       0.13888889 </v>
   <v>       0.47222222       0.41666667       0.13888889 </v>
   <v>       0.47222222       0.47222222       0.13888889 </v>
   <v>       0.19444444       0.19444444       0.19444444 </v>
   <v>       0.25000000       0.19444444       0.19444444 </v>
   <v>       0.30555556       0.19444444       0.19444444 </v>
   <v>       0.36111111       0.19444444       0.19444444 </v>
   <v>       0.41666667       0.19444444       0.19444444 </v>
   <v>       0.47222222       0.19444444       0.19444444 </v>
   <v>       0.25000000       0.25000000       0.19444444 </v>
   <v>       0.30555556       0.25000000       0.19444444 </v>
   <v>       0.36111111       0.25000000       0.19444444 </v>
   <v>       0.41666667       0.25000000       0.19444444 </v>
   <v>       0.47222222       0.25000000       0.19444444 </v>
   <v>       0.30555556       0.30555556       0.19444444 </v>
   <v>       0.36111111       0.30555556       0.19444444 </v>
   <v>       0.41666667       0.30555556       0.19444444 </v>
   <v>       0.47222222       0.30555556       0.19444444 </v>
   <v>       0.36111111       0.36111111       0.19444444 </v>
   <v>       0.41666667       0.36111111       0.19444444 </v>
   <v>       0.47222222       0.36111111       0.19444444 </v>
   <v>       0.41666667       0.41666667       0.19444444 </v>
   <v>       0.47222222       0.41666667       0.19444444 </v>
   <v>       0.47222222       0.47222222       0.19444444 </v>
   <v>       0.25000000       0.25000000       0.25000000 </v>
   <v>       0.30555556       0.25000000       0.25000000 </v>
   <v>       0.36111111       0.25000000       0.25000000 </v>
   <v>       0.41666667       0.25000000       0.25000000 </v>
   <v>       0.47222222       0.25000000       0.25000000 </v>
   <v>       0.30555556       0.30555556       0.25000000 </v>
   <v>       0.36111111       0.30555556       0.25000000 </v>
   <v>       0.41666667       0.30555556       0.25000000 </v>
   <v>       0.47222222       0.30555556       0.25000000 </v>
   <v>       0.36111111       0.36111111       0.25000000 </v>
   <v>       0.41666667       0.36111111       0.25000000 </v>
   <v>       0.47222222       0.36111111       0.25000000 </v>
   <v>       0.41666667       0.41666667       0.25000000 </v>
   <v>       0.47222222       0.41666667       0.25000000 </v>
   <v>       0.47222222       0.47222222       0.25000000 </v>
   <v>       0.30555556       0.30555556       0.30555556 </v>
   <v>       0.36111111       0.30555556       0.30555556 </v>
   <v>       0.41666667       0.30555556       0.30555556 </v>
   <v>       0.47222222       0.30555556       0.30555556 </v>
   <v>       0.36111111       0.36111111       0.30555556 </v>
   <v>       0.41666667       0.36111111       0.30555556 </v>
   <v>       0.47222222       0.36111111       0.30555556 </v>
   <v>       0.41666667       0.41666667       0.30555556 </v>
   <v>       0.47222222       0.41666667       0.30555556 </v>
   <v>       0.47222222       0.47222222       0.30555556 </v>
   <v>       0.36111111       0.36111111       0.36111111 </v>
   <v>       0.41666667       0.36111111       0.36111111 </v>
   <v>       0.47222222       0.36111111       0.36111111 </v>
   <v>       0.41666667       0.41666667       0.36111111 </v>
   <v>       0.47222222       0.41666667       0.36111111 </v>
   <v>       0.47222222       0.47222222       0.36111111 </v>
   <v>       0.41666667       0.41666667       0.41666667 </v>
   <v>       0.47222222       0.41666667       0.41666667 </v>
   <v>       0.47222222       0.47222222       0.41666667 </v>
   <v>       0.47222222       0.47222222       0.47222222 </v>
  </varray>
  <varray name="weights" >
   <v>       0.00137174 </v>
   <v>       0.00411523 </v>
   <v>       0.00411523 </v>
   <v>       0.00411523 </v>
   <v>       0.00411523 </v>
   <v>       0.00411523 </v>
   <v>       0.00411523 </v>
   <v>       0.00411523 </v>
   <v>       0.00411523 </v>
   <v>       0.00411523 </v>
   <v>       0.00823045 </v>
   <v>       0.00823045 </v>
   <v>       0.00823045 </v>
   <v>       0.00823045 </v>
   <v>       0.00823045 </v>
   <v>       0.00823045 </v>
   <v>       0.00823045 </v>
   <v>       0.00411523 </v>
   <v>       0.00823045 </v>
   <v>       0.00823045 </v>
   <v>       0.00823045 </v>
   <v>       0.00823045 </v>
   <v>       0.00823045 </v>
   <v>       0.00823045 </v>
   <v>       0.00411523 </v>
   <v>       0.00823045 </v>
   <v>       0.00823045 </v>
   <v>       0.00823045 </v>
   <v>       0.00823045 </v>
   <v>       0.00823045 </v>
   <v>       0.00411523 </v>
   <v>       0.00823045 </v>
   <v>       0.00823045 </v>
   <v>       0.00823045 </v>
   <v>       0.00823045 </v>
   <v>       0.00411523 </v>
   <v>       0.00823045 </v>
   <v>       0.00823045 </v>
   <v>       0.00823045 </v>
   <v>       0.00411523 </v>
   <v>       0.00823045 </v>
   <v>       0.00823045 </v>
   <v>       0.00411523 </v>
   <v>       0.00823045 </v>
   <v>       0.00411523 </v>
   <v>       0.00137174 </v>
   <v>       0.00411523 </v>
   <v>       0.00411523 </v>
   <v>       0.00411523 </v>
   <v>       0.00411523 </v>
   <v>       0.00411523 </v>
   <v>       0.00411523 </v>
   <v>       0.00411523 </v>
   <v>       0.00411523 </v>
   <v>       0.00823045 </v>
   <v>       0.00823045 </v>
   <v>       0.00823045 </v>
   <v>       0.00823045 </v>
   <v>       0.00823045 </v>
   <v>       0.00823045 </v>
   <v>       0.00411523 </v>
   <v>       0.00823045 </v>
   <v>       0.00823045 </v>
   <v>       0.00823045 </v>
   <v>       0.00823045 </v>
   <v>       0.00823045 </v>
   <v>       0.00411523 </v>
   <v>       0.00823045 </v>
   <v>       0.00823045 </v>
   <v>       0.00823045 </v>
   <v>       0.00823045 </v>
   <v>       0.00411523 </v>
   <v>       0.00823045 </v>
   <v>       0.00823045 </v>
   <v>       0.00823045 </v>
   <v>       0.00411523 </v>
   <v>       0.00823045 </v>
   <v>       0.00823045 </v>
   <v>       0.00411523 </v>
   <v>       0.00823045 </v>
   <v>       0.00411523 </v>
   <v>       0.00137174 </v>
   <v>       0.00411523 </v>
   <v>       0.00411523 </v>
   <v>       0.00411523 </v>
   <v>       0.00411523 </v>
   <v>       0.00411523 </v>
   <v>       0.00411523 </v>
   <v>       0.00411523 </v>
   <v>       0.00823045 </v>
   <v>       0.00823045 </v>
   <v>       0.00823045 </v>
   <v>       0.00823045 </v>
   <v>       0.00823045 </v>
   <v>       0.00411523 </v>
   <v>       0.00823045 </v>
   <v>       0.00823045 </v>
   <v>       0.00823045 </v>
   <v>       0.00823045 </v>
   <v>       0.00411523 </v>
   <v>       0.00823045 </v>
   <v>       0.00823045 </v>
   <v>       0.00823045 </v>
   <v>       0.00411523 </v>
   <v>       0.00823045 </v>
   <v>       0.00823045 </v>
   <v>       0.00411523 </v>
   <v>       0.00823045 </v>
   <v>       0.00411523 </v>
   <v>       0.00137174 </v>
   <v>       0.00411523 </v>
   <v>       0.00411523 </v>
   <v>       0.00411523 </v>
   <v>       0.00411523 </v>
   <v>       0.00411523 </v>
   <v>       0.00411523 </v>
   <v>       0.00823045 </v>
   <v>       0.00823045 </v>
   <v>       0.00823045 </v>
   <v>       0.00823045 </v>
   <v>       0.00411523 </v>
   <v>       0.00823045 </v>
   <v>       0.00823045 </v>
   <v>       0.00823045 </v>
   <v>       0.00411523 </v>
   <v>       0.00823045 </v>
   <v>       0.00823045 </v>
   <v>       0.00411523 </v>
   <v>       0.00823045 </v>
   <v>       0.00411523 </v>
   <v>       0.00137174 </v>
   <v>       0.00411523 </v>
   <v>       0.00411523 </v>
   <v>       0.00411523 </v>
   <v>       0.00411523 </v>
   <v>       0.00411523 </v>
   <v>       0.00823045 </v>
   <v>       0.00823045 </v>
   <v>       0.00823045 </v>
   <v>       0.00411523 </v>
   <v>       0.00823045 </v>
   <v>       0.00823045 </v>
   <v>       0.00411523 </v>
   <v>       0.00823045 </v>
   <v>       0.00411523 </v>
   <v>       0.00137174 </v>
   <v>       0.00411523 </v>
   <v>       0.00411523 </v>
   <v>       0.00411523 </v>
   <v>       0.00411523 </v>
   <v>       0.00823045 </v>
   <v>       0.00823045 </v>
   <v>       0.00411523 </v>
   <v>       0.00823045 </v>
   <v>       0.00411523 </v>
   <v>       0.00137174 </v>
   <v>       0.00411523 </v>
   <v>       0.00411523 </v>
   <v>       0.00411523 </v>
   <v>       0.00823045 </v>
   <v>       0.00411523 </v>
   <v>       0.00137174 </v>
   <v>       0.00411523 </v>
   <v>       0.00411523 </v>
   <v>       0.00137174 </v>
  </varray>
 </kpoints>
 <parameters>
  <separator name="general" >
   <i type="string" name="SYSTEM">Al fcc relaxation</i>
   <i type="logical" name="LCOMPAT"> F  </i>
  </separator>
  <separator name="electronic" >
   <i type="string" name="PREC">accura</i>
   <i name="ENMAX">    400.00000000</i>
   <i name="ENAUG">    291.05200000</i>
   <i name="EDIFF">      0.00000100</i>
   <i type="int" name="IALGO">    68</i>
   <i type="int" name="IWAVPR">    11</i>
   <i type="int" name="NBANDS">    14</i>
   <i type="int" name="NBANDSLOW">    -1</i>
   <i type="int" name="NBANDSHIGH">    -1</i>
   <i name="NELECT">     12.00000000</i>
   <i type="int" name="TURBO">     0</i>
   <i type="int" name="IRESTART">     0</i>
   <i type="int" name="NREBOOT">     0</i>
   <i type="int" name="NMIN">     0</i>
   <i name="EREF">      0.00000000</i>
   <separator name="electronic smearing" >
    <i type="int" name="ISMEAR">     1</i>
    <i name="SIGMA">      0.20000000</i>
    <i name="KSPACING">      0.08000000</i>
    <i type="logical" name="KGAMMA"> T  </i>
    <i type="logical" name="KBLOWUP"> T  </i>
   </separator>
   <separator name="electronic projectors" >
    <i type="logical" name="LREAL"> T  </i>
    <v name="ROPT">     -0.00025000</v>
    <i type="int" name="LMAXPAW">  -100</i>
    <i type="int" name="LMAXMIX">     2</i>
    <i type="logical" name="NLSPLINE"> F  </i>
   </separator>
   <separator name="electronic startup" >
    <i type="int" name="ISTART">     0</i>
    <i type="int" name="ICHARG">     2</i>
    <i type="int" name="INIWAV">     1</i>
   </separator>
   <separator name="electronic spin" >
    <i type="int" name="ISPIN">     1</i>
    <i type="logical" name="LNONCOLLINEAR"> F  </i>
    <v name="MAGMOM">      1.00000000      1.00000000      1.00000000      1.00000000</v>
    <i name="NUPDOWN">     -1.00000000</i>
    <i type="logical" name="LSORBIT"> F  </i>
    <v name="SAXIS">      0.00000000      0.00000000      1.00000000</v>
    <i type="logical" name="LSPIRAL"> F  </i>
    <v name="QSPIRAL">      0.00000000      0.00000000      0.00000000</v>
    <i type="logical" name="LZEROZ"> F  </i>
   </separator>
   <separator name="electronic exchange-correlation" >
    <i type="logical" name="LASPH"> F  </i>
    <i type="logical" name="LMETAGGA"> F  </i>
   </separator>
   <separator name="electronic convergence" >
    <i type="int" name="NELM">    60</i>
    <i type="int" name="NELMDL">    -5</i>
    <i type="int" name="NELMIN">     4</i>
    <i name="ENINI">    400.00000000</i>
    <separator name="electronic convergence detail" >
     <i type="logical" name="LDIAG"> T  </i>
     <i type="logical" name="LSUBROT"> F  </i>
     <i name="WEIMIN">      0.00100000</i>
     <i name="EBREAK">      0.00000002</i>
     <i name="DEPER">      0.30000000</i>
     <i type="int" name="NRMM">     4</i>
     <i name="TIME">      0.40000000</i>
    </separator>
   </separator>
   <separator name="electronic mixer" >
    <i name="AMIX">      0.40000000</i>
    <i name="BMIX">      1.00000000</i>
    <i name="AMIN">      0.10000000</i>
    <i name="AMIX_MAG">      1.60000000</i>
    <i name="BMIX_MAG">      1.00000000</i>
    <separator name="electronic mixer details" >
     <i type="int" name="IMIX">     4</i>
     <i type="logical" name="MIXFIRST"> F  </i>
     <i type="int" name="MAXMIX">   -45</i>
     <i name="WC">    100.00000000</i>
     <i type="int" name="INIMIX">     1</i>
     <i type="int" name="MIXPRE">     1</i>
     <i type="int" name="MREMOVE">     5</i>
    </separator>
   </separator>
   <separator name="electronic dipolcorrection" >
    <i type="logical" name="LDIPOL"> F  </i>
    <i type="logical" name="LMONO"> F  </i>
    <i type="int" name="IDIPOL">     0</i>
    <i name="EPSILON">      1.00000000</i>
    <v name="DIPOL">   -100.00000000   -100.00000000   -100.00000000</v>
    <i name="EFIELD">      0.00000000</i>
   </separator>
  </separator>
  <separator name="grids" >
   <i type="int" name="NGX">    30</i>
   <i type="int" name="NGY">    30</i>
   <i type="int" name="NGZ">    30</i>
   <i type="int" name="NGXF">    60</i>
   <i type="int" name="NGYF">    60</i>
   <i type="int" name="NGZF">    60</i>
   <i type="logical" name="ADDGRID"> F  </i>
  </separator>
  <separator name="ionic" >
   <i type="int" name="NSW">   100</i>
   <i type="int" name="IBRION">     2</i>
   <i type="int" name="MDALGO">     0</i>
   <i type="int" name="ISIF">     4</i>
   <i name="PSTRESS">      0.00000000</i>
   <i name="EDIFFG">      0.00001000</i>
   <i type="int" name="NFREE">     1</i>
   <i name="POTIM">      0.50000000</i>
   <i name="SMASS">     -3.00000000</i>
   <i name="SCALEE">      1.00000000</i>
  </separator>
  <separator name="ionic md" >
   <i name="TEBEG">      0.00010000</i>
   <i name="TEEND">      0.00010000</i>
   <i type="int" name="NBLOCK">     1</i>
   <i type="int" name="KBLOCK">   100</i>
   <i type="int" name="NPACO">   256</i>
   <i name="APACO">     10.00000000</i>
  </separator>
  <separator name="symmetry" >
   <i type="int" name="ISYM">     2</i>
   <i name="SYMPREC">      0.00001000</i>
  </separator>
  <separator name="dos" >
   <i type="int" name="LORBIT">     0</i>
   <v name="RWIGS">     -1.00000000</v>
   <i type="int" name="NEDOS">   301</i>
   <i name="EMIN">     10.00000000</i>
   <i name="EMAX">    -10.00000000</i>
   <i name="EFERMI">      0.00000000</i>
  </separator>
  <separator name="writing" >
   <i type="int" name="NWRITE">     2</i>
   <i type="logical" name="LWAVE"> F  </i>
   <i type="logical" name="LDOWNSAMPLE"> F  </i>
   <i type="logical" name="LCHARG"> F  </i>
   <i type="logical" name="LPARD"> F  </i>
   <i type="logical" name="LVTOT"> F  </i>
   <i type="logical" name="LVHAR"> F  </i>
   <i type="logical" name="LELF"> F  </i>
   <i type="logical" name="LOPTICS"> F  </i>
   <v name="STM">      0.00000000      0.00000000      0.00000000      0.00000000      0.00000000      0.00000000      0.00000000</v>
  </separator>
  <separator name="performance" >
   <i type="int" name="NPAR">    14</i>
   <i type="int" name="NSIM">     4</i>
   <i type="int" name="NBLK">    -1</i>
   <i type="logical" name="LPLANE"> T  </i>
   <i type="logical" name="LSCALAPACK"> T  </i>
   <i type="logical" name="LSCAAWARE"> F  </i>
   <i type="logical" name="LSCALU"> F  </i>
   <i type="logical" name="LASYNC"> F  </i>
   <i type="logical" name="LORBITALREAL"> F  </i>
  </separator>
  <separator name="miscellaneous" >
   <i type="int" name="IDIOT">     3</i>
   <i type="int" name="PHON_NSTRUCT">    -1</i>
   <i type="logical" name="LMUSIC"> F  </i>
   <v name="POMASS">     26.98100000</v>
   <v name="DARWINR">      0.00000000</v>
   <v name="DARWINV">      1.00000000</v>
   <i type="logical" name="LCORR"> T  </i>
  </separator>
  <i type="logical" name="GGA_COMPAT"> T  </i>
  <i type="logical" name="LBERRY"> F  </i>
  <i type="int" name="ICORELEVEL">     0</i>
  <i type="logical" name="LDAU"> F  </i>
  <i type="int" name="I_CONSTRAINED_M">     0</i>
  <separator name="electronic exchange-correlation" >
   <i type="string" name="GGA">--</i>
   <i type="int" name="VOSKOWN">     0</i>
   <i type="logical" name="LHFCALC"> F  </i>
   <i type="string" name="PRECFOCK"></i>
   <i type="logical" name="LSYMGRAD"> F  </i>
   <i type="logical" name="LHFONE"> F  </i>
   <i type="logical" name="LRHFCALC"> F  </i>
   <i type="logical" name="LTHOMAS"> F  </i>
   <i type="logical" name="LMODELHF"> F  </i>
   <i type="logical" name="LFOCKACE"> F  </i>
   <i name="ENCUT4O">     -1.00000000</i>
   <i type="int" name="EXXOEP">     0</i>
   <i type="int" name="FOURORBIT">     0</i>
   <i name="AEXX">      0.00000000</i>
   <i name="HFALPHA">      0.00000000</i>
   <i name="MCALPHA">      0.00000000</i>
   <i name="ALDAX">      1.00000000</i>
   <i name="AGGAX">      1.00000000</i>
   <i name="ALDAC">      1.00000000</i>
   <i name="AGGAC">      1.00000000</i>
   <i type="int" name="NKREDX">     1</i>
   <i type="int" name="NKREDY">     1</i>
   <i type="int" name="NKREDZ">     1</i>
   <i type="logical" name="SHIFTRED"> F  </i>
   <i type="logical" name="ODDONLY"> F  </i>
   <i type="logical" name="EVENONLY"> F  </i>
   <i type="int" name="LMAXFOCK">     0</i>
   <i type="int" name="NMAXFOCKAE">     0</i>
   <i type="logical" name="LFOCKAEDFT"> F  </i>
   <i name="HFSCREEN">      0.00000000</i>
   <i name="HFSCREENC">      0.00000000</i>
   <i type="int" name="NBANDSGWLOW">     0</i>
  </separator>
  <separator name="vdW DFT" >
   <i type="logical" name="LUSE_VDW"> F  </i>
   <i type="int" name="IVDW_NL">     1</i>
   <i type="logical" name="LSPIN_VDW"> F  </i>
   <i name="Zab_VDW">     -0.84910000</i>
   <i name="PARAM1">      0.12340000</i>
   <i name="PARAM2">      1.00000000</i>
   <i name="PARAM3">      0.00000000</i>
  </separator>
  <separator name="model GW" >
   <i type="int" name="MODEL_GW">     0</i>
   <i name="MODEL_EPS0">     13.34209128</i>
   <i name="MODEL_ALPHA">      1.00000000</i>
  </separator>
  <separator name="linear response parameters" >
   <i type="logical" name="LEPSILON"> F  </i>
   <i type="logical" name="LRPA"> F  </i>
   <i type="logical" name="LNABLA"> F  </i>
   <i type="logical" name="LVEL"> F  </i>
   <i name="CSHIFT">      0.10000000</i>
   <i name="OMEGAMAX">     -1.00000000</i>
   <i name="DEG_THRESHOLD">      0.00200000</i>
   <i name="RTIME">     -0.10000000</i>
   <i name="WPLASMAI">      0.00000000</i>
   <v name="DFIELD">      0.00000000      0.00000000      0.00000000</v>
   <v name="WPLASMA">      0.00000000      0.00000000      0.00000000      0.00000000      0.00000000      0.00000000      0.00000000      0.00000000      0.00000000</v>
  </separator>
  <separator name="orbital magnetization" >
   <i type="logical" name="NUCIND"> F  </i>
   <v name="MAGPOS">      0.00000000      0.00000000      0.00000000</v>
   <i type="logical" name="LNICSALL"> T  </i>
   <i type="logical" name="ORBITALMAG"> F  </i>
   <i type="logical" name="LMAGBLOCH"> F  </i>
   <i type="logical" name="LCHIMAG"> F  </i>
   <i type="logical" name="LGAUGE"> T  </i>
   <i type="int" name="MAGATOM">     0</i>
   <v name="MAGDIPOL">      0.00000000      0.00000000      0.00000000</v>
   <v name="AVECCONST">      0.00000000      0.00000000      0.00000000</v>
  </separator>
  <separator name="response functions" >
   <i type="logical" name="LALL_IN_ONE"> F  </i>
   <i type="int" name="IALL_IN_ONE">    -1</i>
   <i type="int" name="NBANDS_WAVE">    -1</i>
   <i type="logical" name="LFINITE_TEMPERATURE"> F  </i>
   <i type="logical" name="LADDER"> F  </i>
   <i type="logical" name="LRPAFORCE"> F  </i>
   <i type="logical" name="LFXC"> F  </i>
   <i type="logical" name="LHARTREE"> T  </i>
   <i type="int" name="IBSE">     0</i>
   <v type="int" name="KPOINT">    -1     0     0     0</v>
   <i type="logical" name="LTCTC"> F  </i>
   <i type="logical" name="LTCTE"> F  </i>
   <i type="logical" name="LTETE"> F  </i>
   <i type="logical" name="LTRIPLET"> F  </i>
   <i type="logical" name="LFXCEPS"> F  </i>
   <i type="logical" name="LFXHEG"> F  </i>
   <i type="int" name="NATURALO">     2</i>
   <i type="logical" name="LHOLEGF"> F  </i>
   <i type="logical" name="L2ORDER"> F  </i>
   <i type="logical" name="LDMP1"> F  </i>
   <i type="logical" name="LMP2LT"> F  </i>
   <i type="logical" name="LSMP2LT"> F  </i>
   <i type="logical" name="LGWLF"> F  </i>
   <i name="ENCUTGW">     -1.60000002</i>
   <i name="ENCUTGWSOFT">     -1.60000002</i>
   <i name="ENCUTLF">     -1.00000000</i>
   <i type="logical" name="LESF_SPLINES"> F  </i>
   <i type="int" name="LMAXMP2">    -1</i>
   <i name="SCISSOR">      0.00000000</i>
   <i type="int" name="NOMEGA">     0</i>
   <i type="int" name="NOMEGAR">     0</i>
   <i type="int" name="NBANDSGW">    -1</i>
   <i type="int" name="NBANDSO">    -1</i>
   <i type="int" name="NBANDSV">    -1</i>
   <i type="int" name="NELMGW">     1</i>
   <i type="int" name="NELMHF">     1</i>
   <i type="int" name="DIM">     3</i>
   <i type="int" name="IESPILON">     4</i>
   <i type="int" name="ANTIRES">     0</i>
   <i name="OMEGAMAX">    -30.00000000</i>
   <i name="OMEGAMIN">    -30.00000000</i>
   <i name="OMEGATL">   -200.00000000</i>
   <i type="int" name="OMEGAGRID">     0</i>
   <i name="CSHIFT">     -0.10000000</i>
   <i type="logical" name="LSELFENERGY"> F  </i>
   <i type="logical" name="LSPECTRAL"> F  </i>
   <i type="logical" name="LSPECTRALGW"> F  </i>
   <i type="logical" name="LSINGLES"> F  </i>
   <i type="logical" name="LFERMIGW"> F  </i>
   <i type="logical" name="ODDONLYGW"> F  </i>
   <i type="logical" name="EVENONLYGW"> F  </i>
   <i type="int" name="NKREDLFX">     1</i>
   <i type="int" name="NKREDLFY">     1</i>
   <i type="int" name="NKREDLFZ">     1</i>
   <i type="int" name="MAXMEM">  2800</i>
   <i type="int" name="TELESCOPE">     0</i>
   <i type="int" name="NTAUPAR">    -1</i>
   <i type="int" name="NOMEGAPAR">    -1</i>
   <i name="DAMP_NEWTON">      0.80000001</i>
   <i name="LAMBDA">      1.00000000</i>
  </separator>
  <separator name="External order field" >
   <i name="OFIELD_KAPPA">      0.00000000</i>
   <v name="OFIELD_K">      0.00000000      0.00000000      0.00000000</v>
   <i name="OFIELD_Q6_NEAR">      0.00000000</i>
   <i name="OFIELD_Q6_FAR">      0.00000000</i>
   <i name="OFIELD_A">      0.00000000</i>
  </separator>
  <separator name="optional k-points parameters" >
   <i type="int" name="KPOINTS_OPT_MODE">     1</i>
   <i type="logical" name="LKPOINTS_OPT"> F  </i>
  </separator>
 </parameters>
 <atominfo>
  <atoms>       4 </atoms>
  <types>       1 </types>
  <array name="atoms" >
   <dimension dim="1">ion</dimension>
   <field type="string">element</field>
   <field type="int">atomtype</field>
   <set>
    <rc><c>Al</c><c>   1</c></rc>
    <rc><c>Al</c><c>   1</c></rc>
    <rc><c>Al</c><c>   1</c></rc>
    <rc><c>Al</c><c>   1</c></rc>
   </set>
  </array>
  <array name="atomtypes" >
   <dimension dim="1">type</dimension>
   <field type="int">atomspertype</field>
   <field type="string">element</field>
   <field>mass</field>
   <field>valence</field>
   <field type="string">pseudopotential</field>
   <set>
    <rc><c>   4</c><c>Al</c><c>     26.98100000</c><c>      3.00000000</c><c>  PAW_PBE Al 04Jan2001                  </c></rc>
   </set>
  </array>
 </atominfo>
 <structure name="initialpos" >
  <crystal>
   <varray name="basis" >
    <v>       4.46386326       0.00000000       0.00000000 </v>
    <v>      -0.00000000       4.46386326       0.00000000 </v>
    <v>       0.00000000       0.00000000       4.46386326 </v>
   </varray>
   <i name="volume">     88.94727521 </i>
   <varray name="rec_basis" >
    <v>       0.22402120       0.00000000      -0.00000000 </v>
    <v>       0.00000000       0.22402120       0.00000000 </v>
    <v>      -0.00000000      -0.00000000       0.22402120 </v>
   </varray>
  </crystal>
  <varray name="positions" >
   <v>       0.00000000       0.00000000       0.00000000 </v>
   <v>       0.00000000       0.50000000       0.50000000 </v>
   <v>       0.50000000       0.00000000       0.50000000 </v>
   <v>       0.50000000       0.50000000       0.00000000 </v>
  </varray>
 </structure>
 <calculation>
  <scstep>
   <time name="dav">    8.55    4.30</time>
   <time name="total">    8.65    4.35</time>
   <energy>
    <i name="alphaZ">     -0.60418892 </i>
    <i name="ewald">   -266.22202061 </i>
    <i name="hartreedc">     -1.29226996 </i>
    <i name="XCdc">   -106.96627421 </i>
    <i name="pawpsdc">    264.80062850 </i>
    <i name="pawaedc">   -136.98248303 </i>
    <i name="eentropy">     -0.00252304 </i>
    <i name="bandstr">     30.80423183 </i>
    <i name="atom">    214.15261729 </i>
    <i name="e_fr_energy">     -2.31228214 </i>
    <i name="e_wo_entrp">     -2.30975909 </i>
    <i name="e_0_energy">     -2.31144112 </i>
   </energy>
  </scstep>
  <scstep>
   <time name="dav">   12.28    6.17</time>
   <time name="total">   12.28    6.17</time>
   <energy>
    <i name="e_fr_energy">    -13.89286144 </i>
    <i name="e_wo_entrp">    -13.89505022 </i>
    <i name="e_0_energy">    -13.89359103 </i>
   </energy>
  </scstep>
  <scstep>
   <time name="dav">   11.93    6.08</time>
   <time name="total">   11.94    6.08</time>
   <energy>
    <i name="e_fr_energy">    -13.97734229 </i>
    <i name="e_wo_entrp">    -13.97949378 </i>
    <i name="e_0_energy">    -13.97805946 </i>
   </energy>
  </scstep>
  <scstep>
   <time name="dav">   13.89    7.02</time>
   <time name="total">   13.89    7.02</time>
   <energy>
    <i name="e_fr_energy">    -13.97758745 </i>
    <i name="e_wo_entrp">    -13.97973906 </i>
    <i name="e_0_energy">    -13.97830465 </i>
   </energy>
  </scstep>
  <scstep>
   <time name="dav">   11.83    5.93</time>
   <time name="total">   12.13    6.08</time>
   <energy>
    <i name="e_fr_energy">    -13.97758759 </i>
    <i name="e_wo_entrp">    -13.97973920 </i>
    <i name="e_0_energy">    -13.97830479 </i>
   </energy>
  </scstep>
  <scstep>
   <time name="diag">    1.47    0.74</time>
   <time name="diis">    2.90    1.56</time>
   <time name="orth">    0.12    0.06</time>
   <time name="total">    4.85    2.54</time>
   <energy>
    <i name="e_fr_energy">    -13.93327100 </i>
    <i name="e_wo_entrp">    -13.93540124 </i>
    <i name="e_0_energy">    -13.93398108 </i>
   </energy>
  </scstep>
  <scstep>
   <time name="diag">    1.49    0.74</time>
   <time name="diis">    2.88    1.53</time>
   <time name="orth">    0.11    0.06</time>
   <time name="total">    4.85    2.51</time>
   <energy>
    <i name="e_fr_energy">    -13.90222666 </i>
    <i name="e_wo_entrp">    -13.90432833 </i>
    <i name="e_0_energy">    -13.90292721 </i>
   </energy>
  </scstep>
  <scstep>
   <time name="diag">    1.48    0.74</time>
   <time name="diis">    2.85    1.51</time>
   <time name="orth">    0.11    0.06</time>
   <time name="total">    4.79    2.49</time>
   <energy>
    <i name="e_fr_energy">    -13.90221614 </i>
    <i name="e_wo_entrp">    -13.90431839 </i>
    <i name="e_0_energy">    -13.90291689 </i>
   </energy>
  </scstep>
  <scstep>
   <time name="diag">    1.45    0.72</time>
   <time name="diis">    2.88    1.55</time>
   <time name="orth">    0.10    0.05</time>
   <time name="total">    4.79    2.51</time>
   <energy>
    <i name="e_fr_energy">    -13.90222216 </i>
    <i name="e_wo_entrp">    -13.90432412 </i>
    <i name="e_0_energy">    -13.90292282 </i>
   </energy>
  </scstep>
  <scstep>
   <time name="diag">    1.45    0.73</time>
   <time name="diis">    3.03    1.68</time>
   <time name="orth">    0.14    0.07</time>
   <time name="total">    4.98    2.66</time>
   <energy>
    <i name="e_fr_energy">    -13.90222526 </i>
    <i name="e_wo_entrp">    -13.90432729 </i>
    <i name="e_0_energy">    -13.90292593 </i>
   </energy>
  </scstep>
  <scstep>
   <time name="diag">    1.46    0.73</time>
   <time name="diis">    2.88    1.53</time>
   <time name="orth">    0.10    0.05</time>
   <time name="total">    4.80    2.49</time>
   <energy>
    <i name="e_fr_energy">    -13.90221922 </i>
    <i name="e_wo_entrp">    -13.90432115 </i>
    <i name="e_0_energy">    -13.90291987 </i>
   </energy>
  </scstep>
  <scstep>
   <time name="diag">    1.53    0.76</time>
   <time name="diis">    2.35    1.52</time>
   <time name="orth">    0.11    0.05</time>
   <time name="total">    4.04    2.36</time>
   <energy>
    <i name="alphaZ">     -0.60418892 </i>
    <i name="ewald">   -266.22202061 </i>
    <i name="hartreedc">     -0.64996737 </i>
    <i name="XCdc">   -106.79134830 </i>
    <i name="pawpsdc">    364.70348745 </i>
    <i name="pawaedc">   -236.81745165 </i>
    <i name="eentropy">      0.00210194 </i>
    <i name="bandstr">     18.32455000 </i>
    <i name="atom">    214.15261729 </i>
    <i name="e_fr_energy">    -13.90222017 </i>
    <i name="e_wo_entrp">    -13.90432211 </i>
    <i name="e_0_energy">    -13.90292082 </i>
   </energy>
  </scstep>
  <structure>
   <crystal>
    <varray name="basis" >
     <v>       4.46386326       0.00000000       0.00000000 </v>
     <v>      -0.00000000       4.46386326       0.00000000 </v>
     <v>       0.00000000       0.00000000       4.46386326 </v>
    </varray>
    <i name="volume">     88.94727521 </i>
    <varray name="rec_basis" >
     <v>       0.22402120       0.00000000      -0.00000000 </v>
     <v>       0.00000000       0.22402120       0.00000000 </v>
     <v>      -0.00000000      -0.00000000       0.22402120 </v>
    </varray>
   </crystal>
   <varray name="positions" >
    <v>       0.00000000       0.00000000       0.00000000 </v>
    <v>       0.00000000       0.50000000       0.50000000 </v>
    <v>       0.50000000       0.00000000       0.50000000 </v>
    <v>       0.50000000       0.50000000       0.00000000 </v>
   </varray>
  </structure>
  <varray name="forces" >
   <v>      -0.00000000      -0.00000000       0.00000000 </v>
   <v>       0.00000000       0.00000000      -0.00000000 </v>
   <v>      -0.00000000       0.00000000       0.00000000 </v>
   <v>       0.00000000      -0.00000000      -0.00000000 </v>
  </varray>
  <varray name="stress" >
   <v>    -111.86433787       0.00000000      -0.00000000 </v>
   <v>       0.00000000    -111.86433787      -0.00000000 </v>
   <v>      -0.00000000      -0.00000000    -111.86433787 </v>
  </varray>
  <energy>
   <i name="e_fr_energy">    -13.90222017 </i>
   <i name="e_wo_entrp">    -13.90432211 </i>
   <i name="e_0_energy">    -13.90292082 </i>
  </energy>
  <time name="totalsc">   99.48   51.18</time>
  <eigenvalues>
   <array>
    <dimension dim="1">band</dimension>
    <dimension dim="2">kpoint</dimension>
    <dimension dim="3">spin</dimension>
    <field>eigene</field>
    <field>occ</field>
    <set>
     <set comment="spin 1">
      <set comment="kpoint 1">
       <r>   -3.9997    1.0000 </r>
       <r>    2.8048    1.0000 </r>
       <r>    2.8048    1.0000 </r>
       <r>    2.8048    1.0000 </r>
       <r>    3.7445    1.0000 </r>
       <r>    3.7445    1.0000 </r>
       <r>    3.7445    1.0000 </r>
       <r>    9.2536   -0.0000 </r>
       <r>    9.2536   -0.0000 </r>
       <r>    9.2536   -0.0000 </r>
       <r>    9.6189   -0.0000 </r>
       <r>    9.6190   -0.0000 </r>
       <r>    9.6193   -0.0000 </r>
       <r>   10.6456    0.0000 </r>
      </set>
      <set comment="kpoint 2">
       <r>   -3.9540    1.0000 </r>
       <r>    2.1012    1.0000 </r>
       <r>    2.8481    1.0000 </r>
       <r>    2.8481    1.0000 </r>
       <r>    3.7874    1.0000 </r>
       <r>    3.7874    1.0000 </r>
       <r>    4.5277    1.0000 </r>
       <r>    8.6285   -0.0000 </r>
       <r>    8.6285   -0.0000 </r>
       <r>    9.2953   -0.0000 </r>
       <r>    9.3675   -0.0000 </r>
       <r>    9.3675   -0.0000 </r>
       <r>    9.6595   -0.0000 </r>
       <r>   10.6899    0.0000 </r>
      </set>
      <set comment="kpoint 3">
       <r>   -3.8625    1.0000 </r>
       <r>    1.4018    1.0000 </r>
       <r>    2.9345    1.0000 </r>
       <r>    2.9345    1.0000 </r>
       <r>    3.8730    1.0000 </r>
       <r>    3.8730    1.0000 </r>
       <r>    5.3859   -0.0290 </r>
       <r>    7.9772   -0.0000 </r>
       <r>    7.9772   -0.0000 </r>
       <r>    8.8633   -0.0000 </r>
       <r>    8.8633   -0.0000 </r>
       <r>    9.3786   -0.0000 </r>
       <r>    9.7405   -0.0000 </r>
       <r>   10.7784    0.0000 </r>
      </set>
      <set comment="kpoint 4">
       <r>   -3.7255    1.0000 </r>
       <r>    0.7382    1.0000 </r>
       <r>    3.0640    1.0000 </r>
       <r>    3.0640    1.0000 </r>
       <r>    4.0005    1.0000 </r>
       <r>    4.0005    1.0000 </r>
       <r>    6.2865   -0.0000 </r>
       <r>    7.3498   -0.0000 </r>
       <r>    7.3498   -0.0000 </r>
       <r>    8.3073   -0.0000 </r>
       <r>    8.3073   -0.0000 </r>
       <r>    9.5036   -0.0000 </r>
       <r>    9.8621   -0.0000 </r>
       <r>   10.9112    0.0000 </r>
      </set>
      <set comment="kpoint 5">
       <r>   -3.5428    1.0000 </r>
       <r>    0.1148    1.0000 </r>
       <r>    3.2363    1.0000 </r>
       <r>    3.2363    1.0000 </r>
       <r>    4.1684    1.0000 </r>
       <r>    4.1684    1.0000 </r>
       <r>    6.7583   -0.0000 </r>
       <r>    6.7583   -0.0000 </r>
       <r>    7.2232   -0.0000 </r>
       <r>    7.7568   -0.0000 </r>
       <r>    7.7568   -0.0000 </r>
       <r>    9.6705   -0.0000 </r>
       <r>   10.0241   -0.0000 </r>
       <r>   11.0883    0.0000 </r>
      </set>
      <set comment="kpoint 6">
       <r>   -3.3148    1.0000 </r>
       <r>   -0.4667    1.0000 </r>
       <r>    3.4510    1.0000 </r>
       <r>    3.4510    1.0000 </r>
       <r>    4.3734    1.0000 </r>
       <r>    4.3734    1.0000 </r>
       <r>    6.2082   -0.0000 </r>
       <r>    6.2082   -0.0000 </r>
       <r>    7.2335   -0.0000 </r>
       <r>    7.2335   -0.0000 </r>
       <r>    8.1908   -0.0000 </r>
       <r>    9.8796   -0.0000 </r>
       <r>   10.2266   -0.0000 </r>
       <r>   11.3092    0.0000 </r>
      </set>
      <set comment="kpoint 7">
       <r>   -3.0416    1.0000 </r>
       <r>   -1.0055    1.0000 </r>
       <r>    3.7071    1.0000 </r>
       <r>    3.7071    1.0000 </r>
       <r>    4.6064    1.0002 </r>
       <r>    4.6064    1.0002 </r>
       <r>    5.7061   -0.0006 </r>
       <r>    5.7061   -0.0006 </r>
       <r>    6.7511   -0.0000 </r>
       <r>    6.7511   -0.0000 </r>
       <r>    9.1810   -0.0000 </r>
       <r>   10.1334   -0.0000 </r>
       <r>   10.4694   -0.0000 </r>
       <r>   11.5746    0.0000 </r>
      </set>
      <set comment="kpoint 8">
       <r>   -2.7233    1.0000 </r>
       <r>   -1.5010    1.0000 </r>
       <r>    4.0019    1.0000 </r>
       <r>    4.0019    1.0000 </r>
       <r>    4.8230    1.0155 </r>
       <r>    4.8230    1.0155 </r>
       <r>    5.2846    0.1107 </r>
       <r>    5.2846    0.1107 </r>
       <r>    6.3289   -0.0000 </r>
       <r>    6.3289   -0.0000 </r>
       <r>   10.1567   -0.0000 </r>
       <r>   10.4588   -0.0000 </r>
       <r>   10.7525    0.0000 </r>
       <r>   11.5121    0.0000 </r>
      </set>
      <set comment="kpoint 9">
       <r>   -2.3603    1.0000 </r>
       <r>   -1.9527    1.0000 </r>
       <r>    4.3192    1.0000 </r>
       <r>    4.3192    1.0000 </r>
       <r>    4.7296    1.0034 </r>
       <r>    4.7296    1.0034 </r>
       <r>    5.1950    0.4256 </r>
       <r>    5.1950    0.4256 </r>
       <r>    6.0281   -0.0000 </r>
       <r>    6.0281   -0.0000 </r>
       <r>   10.7127    0.0000 </r>
       <r>   11.0780    0.0000 </r>
       <r>   11.0961    0.0000 </r>
       <r>   11.2459    0.0000 </r>
      </set>
      <set comment="kpoint 10">
       <r>   -3.9083    1.0000 </r>
       <r>    2.1449    1.0000 </r>
       <r>    2.1449    1.0000 </r>
       <r>    2.8912    1.0000 </r>
       <r>    3.8300    1.0000 </r>
       <r>    4.5700    1.0001 </r>
       <r>    4.5700    1.0001 </r>
       <r>    7.9843   -0.0000 </r>
       <r>    8.6710   -0.0000 </r>
       <r>    8.6710   -0.0000 </r>
       <r>    9.4089   -0.0000 </r>
       <r>    9.4089   -0.0000 </r>
       <r>    9.6996   -0.0000 </r>
       <r>   11.1843    0.0000 </r>
      </set>
      <set comment="kpoint 11">
       <r>   -3.8168    1.0000 </r>
       <r>    1.4458    1.0000 </r>
       <r>    2.2321    1.0000 </r>
       <r>    2.9775    1.0000 </r>
       <r>    3.9148    1.0000 </r>
       <r>    4.6541    1.0007 </r>
       <r>    5.4272   -0.0354 </r>
       <r>    7.3308   -0.0000 </r>
       <r>    8.0203   -0.0000 </r>
       <r>    8.7560   -0.0000 </r>
       <r>    8.9060   -0.0000 </r>
       <r>    9.4788   -0.0000 </r>
       <r>    9.4918   -0.0000 </r>
       <r>   11.3591    0.0000 </r>
      </set>
      <set comment="kpoint 12">
       <r>   -3.6798    1.0000 </r>
       <r>    0.7824    1.0000 </r>
       <r>    2.3628    1.0000 </r>
       <r>    3.1068    1.0000 </r>
       <r>    4.0405    1.0000 </r>
       <r>    4.7791    1.0082 </r>
       <r>    6.3262   -0.0000 </r>
       <r>    6.7060   -0.0000 </r>
       <r>    7.3935   -0.0000 </r>
       <r>    8.3514   -0.0000 </r>
       <r>    8.8839   -0.0000 </r>
       <r>    8.9930   -0.0000 </r>
       <r>    9.6164   -0.0000 </r>
       <r>   11.4876    0.0000 </r>
      </set>
      <set comment="kpoint 13">
       <r>   -3.4972    1.0000 </r>
       <r>    0.1593    1.0000 </r>
       <r>    2.5366    1.0000 </r>
       <r>    3.2786    1.0000 </r>
       <r>    4.2042    1.0000 </r>
       <r>    4.9425    1.0350 </r>
       <r>    6.1213   -0.0000 </r>
       <r>    6.8033   -0.0000 </r>
       <r>    7.2597   -0.0000 </r>
       <r>    7.8031   -0.0000 </r>
       <r>    8.4629   -0.0000 </r>
       <r>    9.0552   -0.0000 </r>
       <r>    9.7830   -0.0000 </r>
       <r>   11.6619    0.0000 </r>
      </set>
      <set comment="kpoint 14">
       <r>   -3.2693    1.0000 </r>
       <r>   -0.4221    1.0000 </r>
       <r>    2.7531    1.0000 </r>
       <r>    3.4921    1.0000 </r>
       <r>    4.3960    1.0000 </r>
       <r>    5.1377    0.6643 </r>
       <r>    5.5897   -0.0065 </r>
       <r>    6.2571   -0.0000 </r>
       <r>    7.2841   -0.0000 </r>
       <r>    7.9447   -0.0000 </r>
       <r>    8.2191   -0.0000 </r>
       <r>    9.2730   -0.0000 </r>
       <r>    9.9930   -0.0000 </r>
       <r>   11.8730    0.0000 </r>
      </set>
      <set comment="kpoint 15">
       <r>   -2.9961    1.0000 </r>
       <r>   -0.9607    1.0000 </r>
       <r>    3.0116    1.0000 </r>
       <r>    3.7445    1.0000 </r>
       <r>    4.5627    1.0001 </r>
       <r>    5.1670    0.5439 </r>
       <r>    5.3299    0.0201 </r>
       <r>    5.7812   -0.0001 </r>
       <r>    6.8140   -0.0000 </r>
       <r>    7.4574   -0.0000 </r>
       <r>    9.1677   -0.0000 </r>
       <r>    9.5630   -0.0000 </r>
       <r>   10.2518   -0.0000 </r>
       <r>   11.3680    0.0000 </r>
      </set>
      <set comment="kpoint 16">
       <r>   -2.6780    1.0000 </r>
       <r>   -1.4561    1.0000 </r>
       <r>    3.3102    1.0000 </r>
       <r>    4.0166    1.0000 </r>
       <r>    4.4512    1.0000 </r>
       <r>    5.1216    0.7261 </r>
       <r>    5.1970    0.4174 </r>
       <r>    5.6541   -0.0019 </r>
       <r>    6.4430   -0.0000 </r>
       <r>    7.0123   -0.0000 </r>
       <r>    9.7561   -0.0000 </r>
       <r>   10.2187   -0.0000 </r>
       <r>   10.6064   -0.0000 </r>
       <r>   10.9128    0.0000 </r>
      </set>
      <set comment="kpoint 17">
       <r>   -2.3150    1.0000 </r>
       <r>   -1.9076    1.0000 </r>
       <r>    3.6441    1.0000 </r>
       <r>    3.9882    1.0000 </r>
       <r>    4.4523    1.0000 </r>
       <r>    4.8045    1.0121 </r>
       <r>    5.3692   -0.0204 </r>
       <r>    5.6229   -0.0036 </r>
       <r>    6.3656   -0.0000 </r>
       <r>    6.6267   -0.0000 </r>
       <r>   10.1147   -0.0000 </r>
       <r>   10.4956   -0.0000 </r>
       <r>   10.7762    0.0000 </r>
       <r>   11.1808    0.0000 </r>
      </set>
      <set comment="kpoint 18">
       <r>   -3.7255    1.0000 </r>
       <r>    1.5337    1.0000 </r>
       <r>    1.5337    1.0000 </r>
       <r>    3.0635    1.0000 </r>
       <r>    3.9975    1.0000 </r>
       <r>    5.5091   -0.0204 </r>
       <r>    5.5091   -0.0204 </r>
       <r>    6.6740   -0.0000 </r>
       <r>    8.1066   -0.0000 </r>
       <r>    8.1066   -0.0000 </r>
       <r>    8.9916   -0.0000 </r>
       <r>    8.9916   -0.0000 </r>
       <r>    9.8608   -0.0000 </r>
       <r>   11.4407    0.0000 </r>
      </set>
      <set comment="kpoint 19">
       <r>   -3.5885    1.0000 </r>
       <r>    0.8708    1.0000 </r>
       <r>    1.6653    1.0000 </r>
       <r>    3.1921    1.0000 </r>
       <r>    4.1181    1.0000 </r>
       <r>    5.6296   -0.0032 </r>
       <r>    6.0514   -0.0000 </r>
       <r>    6.4041   -0.0000 </r>
       <r>    7.4815   -0.0000 </r>
       <r>    8.2369   -0.0000 </r>
       <r>    8.4404   -0.0000 </r>
       <r>    9.1209   -0.0000 </r>
       <r>    9.6820   -0.0000 </r>
       <r>   11.8957    0.0000 </r>
      </set>
      <set comment="kpoint 20">
       <r>   -3.4061    1.0000 </r>
       <r>    0.2481    1.0000 </r>
       <r>    1.8405    1.0000 </r>
       <r>    3.3624    1.0000 </r>
       <r>    4.2664    1.0000 </r>
       <r>    5.4813   -0.0268 </r>
       <r>    5.7825   -0.0001 </r>
       <r>    6.8957   -0.0000 </r>
       <r>    7.3279   -0.0000 </r>
       <r>    7.8977   -0.0000 </r>
       <r>    8.4141   -0.0000 </r>
       <r>    9.2363   -0.0000 </r>
       <r>    9.2960   -0.0000 </r>
       <r>   11.7716    0.0000 </r>
      </set>
      <set comment="kpoint 21">
       <r>   -3.1783    1.0000 </r>
       <r>   -0.3328    1.0000 </r>
       <r>    2.0589    1.0000 </r>
       <r>    3.5716    1.0000 </r>
       <r>    4.3866    1.0000 </r>
       <r>    5.0249    0.9798 </r>
       <r>    5.9353   -0.0000 </r>
       <r>    6.3763   -0.0000 </r>
       <r>    7.3929   -0.0000 </r>
       <r>    8.2451   -0.0000 </r>
       <r>    8.6618   -0.0000 </r>
       <r>    8.7465   -0.0000 </r>
       <r>    9.5247   -0.0000 </r>
       <r>   11.2379    0.0000 </r>
      </set>
      <set comment="kpoint 22">
       <r>   -2.9053    1.0000 </r>
       <r>   -0.8711    1.0000 </r>
       <r>    2.3200    1.0000 </r>
       <r>    3.7986    1.0000 </r>
       <r>    4.2371    1.0000 </r>
       <r>    4.9451    1.0348 </r>
       <r>    5.7578   -0.0002 </r>
       <r>    6.2125   -0.0000 </r>
       <r>    6.9778   -0.0000 </r>
       <r>    8.2697   -0.0000 </r>
       <r>    8.8152   -0.0000 </r>
       <r>    9.2697   -0.0000 </r>
       <r>    9.8531   -0.0000 </r>
       <r>   10.7408    0.0000 </r>
      </set>
      <set comment="kpoint 23">
       <r>   -2.5873    1.0000 </r>
       <r>   -1.3662    1.0000 </r>
       <r>    2.6229    1.0000 </r>
       <r>    3.7264    1.0000 </r>
       <r>    4.2031    1.0000 </r>
       <r>    5.1727    0.5196 </r>
       <r>    5.3157    0.0430 </r>
       <r>    6.1423   -0.0000 </r>
       <r>    6.8543   -0.0000 </r>
       <r>    7.8244   -0.0000 </r>
       <r>    9.1373   -0.0000 </r>
       <r>    9.8838   -0.0000 </r>
       <r>   10.2818   -0.0000 </r>
       <r>   10.5292   -0.0000 </r>
      </set>
      <set comment="kpoint 24">
       <r>   -2.2246    1.0000 </r>
       <r>   -1.8174    1.0000 </r>
       <r>    2.9655    1.0000 </r>
       <r>    3.3425    1.0000 </r>
       <r>    4.5164    1.0000 </r>
       <r>    4.8948    1.0313 </r>
       <r>    5.4845   -0.0260 </r>
       <r>    5.8303   -0.0000 </r>
       <r>    7.0767   -0.0000 </r>
       <r>    7.4213   -0.0000 </r>
       <r>    9.4809   -0.0000 </r>
       <r>    9.8618   -0.0000 </r>
       <r>   10.2776   -0.0000 </r>
       <r>   10.6645    0.0000 </r>
      </set>
      <set comment="kpoint 25">
       <r>   -3.4517    1.0000 </r>
       <r>    1.0033    1.0000 </r>
       <r>    1.0033    1.0000 </r>
       <r>    3.3191    1.0000 </r>
       <r>    4.2229    1.0000 </r>
       <r>    5.4429   -0.0340 </r>
       <r>    6.5143   -0.0000 </r>
       <r>    6.5143   -0.0000 </r>
       <r>    7.6167   -0.0000 </r>
       <r>    7.6167   -0.0000 </r>
       <r>    8.5765   -0.0000 </r>
       <r>    8.5765   -0.0000 </r>
       <r>   10.1023   -0.0000 </r>
       <r>   11.7420    0.0000 </r>
      </set>
      <set comment="kpoint 26">
       <r>   -3.2694    1.0000 </r>
       <r>    0.3812    1.0000 </r>
       <r>    1.1796    1.0000 </r>
       <r>    3.4849    1.0000 </r>
       <r>    4.2982    1.0000 </r>
       <r>    4.9480    1.0344 </r>
       <r>    6.6254   -0.0000 </r>
       <r>    7.0577   -0.0000 </r>
       <r>    7.3964   -0.0000 </r>
       <r>    7.8215   -0.0000 </r>
       <r>    8.0490   -0.0000 </r>
       <r>    8.7682   -0.0000 </r>
       <r>    9.9679   -0.0000 </r>
       <r>   11.1672    0.0000 </r>
      </set>
      <set comment="kpoint 27">
       <r>   -3.0418    1.0000 </r>
       <r>   -0.1991    1.0000 </r>
       <r>    1.3996    1.0000 </r>
       <r>    3.6674    1.0000 </r>
       <r>    4.1073    1.0000 </r>
       <r>    4.8277    1.0165 </r>
       <r>    6.4027   -0.0000 </r>
       <r>    6.8566   -0.0000 </r>
       <r>    7.6005   -0.0000 </r>
       <r>    7.9356   -0.0000 </r>
       <r>    8.3886   -0.0000 </r>
       <r>    9.0592   -0.0000 </r>
       <r>    9.5668   -0.0000 </r>
       <r>   10.6296   -0.0000 </r>
      </set>
      <set comment="kpoint 28">
       <r>   -2.7691    1.0000 </r>
       <r>   -0.7368    1.0000 </r>
       <r>    1.6628    1.0000 </r>
       <r>    3.5503    1.0000 </r>
       <r>    4.0339    1.0000 </r>
       <r>    5.0153    0.9926 </r>
       <r>    5.9170   -0.0000 </r>
       <r>    6.7441   -0.0000 </r>
       <r>    7.4401   -0.0000 </r>
       <r>    8.2177   -0.0000 </r>
       <r>    9.0039   -0.0000 </r>
       <r>    9.1206   -0.0000 </r>
       <r>    9.6732   -0.0000 </r>
       <r>   10.1290   -0.0000 </r>
      </set>
      <set comment="kpoint 29">
       <r>   -2.4514    1.0000 </r>
       <r>   -1.2314    1.0000 </r>
       <r>    1.9686    1.0000 </r>
       <r>    3.1239    1.0000 </r>
       <r>    4.3042    1.0000 </r>
       <r>    5.2941    0.0875 </r>
       <r>    5.4517   -0.0328 </r>
       <r>    6.3866   -0.0000 </r>
       <r>    7.6234   -0.0000 </r>
       <r>    8.5214   -0.0000 </r>
       <r>    8.6873   -0.0000 </r>
       <r>    9.3806   -0.0000 </r>
       <r>    9.6671   -0.0000 </r>
       <r>   10.5331   -0.0000 </r>
      </set>
      <set comment="kpoint 30">
       <r>   -2.0890    1.0000 </r>
       <r>   -1.6822    1.0000 </r>
       <r>    2.3161    1.0000 </r>
       <r>    2.7030    1.0000 </r>
       <r>    4.6416    1.0005 </r>
       <r>    5.0254    0.9791 </r>
       <r>    5.6240   -0.0035 </r>
       <r>    5.9932   -0.0000 </r>
       <r>    7.9257   -0.0000 </r>
       <r>    8.2855   -0.0000 </r>
       <r>    8.8632   -0.0000 </r>
       <r>    9.2451   -0.0000 </r>
       <r>    9.7367   -0.0000 </r>
       <r>   10.1181   -0.0000 </r>
      </set>
      <set comment="kpoint 31">
       <r>   -3.0874    1.0000 </r>
       <r>    0.5585    1.0000 </r>
       <r>    0.5585    1.0000 </r>
       <r>    3.6237    1.0000 </r>
       <r>    4.0638    1.0000 </r>
       <r>    4.7875    1.0094 </r>
       <r>    7.1296   -0.0000 </r>
       <r>    7.1296   -0.0000 </r>
       <r>    7.5829   -0.0000 </r>
       <r>    7.5829   -0.0000 </r>
       <r>    8.2989   -0.0000 </r>
       <r>    8.2989   -0.0000 </r>
       <r>   10.4237   -0.0000 </r>
       <r>   10.5916   -0.0000 </r>
      </set>
      <set comment="kpoint 32">
       <r>   -2.8600    1.0000 </r>
       <r>   -0.0210    1.0000 </r>
       <r>    0.7798    1.0000 </r>
       <r>    3.4619    1.0000 </r>
       <r>    3.9488    1.0000 </r>
       <r>    4.9337    1.0355 </r>
       <r>    6.6028   -0.0000 </r>
       <r>    7.3708   -0.0000 </r>
       <r>    7.4247   -0.0000 </r>
       <r>    8.1110   -0.0000 </r>
       <r>    8.1801   -0.0000 </r>
       <r>    8.8593   -0.0000 </r>
       <r>   10.0507   -0.0000 </r>
       <r>   10.3348   -0.0000 </r>
      </set>
      <set comment="kpoint 33">
       <r>   -2.5876    1.0000 </r>
       <r>   -0.5580    1.0000 </r>
       <r>    1.0447    1.0000 </r>
       <r>    2.9920    1.0000 </r>
       <r>    4.1760    1.0000 </r>
       <r>    5.1722    0.5219 </r>
       <r>    6.0958   -0.0000 </r>
       <r>    7.0256   -0.0000 </r>
       <r>    7.6335   -0.0000 </r>
       <r>    8.2567   -0.0000 </r>
       <r>    8.5297   -0.0000 </r>
       <r>    9.5473   -0.0000 </r>
       <r>    9.7605   -0.0000 </r>
       <r>    9.9806   -0.0000 </r>
      </set>
      <set comment="kpoint 34">
       <r>   -2.2703    1.0000 </r>
       <r>   -1.0519    1.0000 </r>
       <r>    1.3528    1.0000 </r>
       <r>    2.5270    1.0000 </r>
       <r>    4.4708    1.0000 </r>
       <r>    5.4644   -0.0304 </r>
       <r>    5.6265   -0.0033 </r>
       <r>    6.5914   -0.0000 </r>
       <r>    7.9347   -0.0000 </r>
       <r>    8.5166   -0.0000 </r>
       <r>    8.8512   -0.0000 </r>
       <r>    9.0833   -0.0000 </r>
       <r>    9.5795   -0.0000 </r>
       <r>    9.9915   -0.0000 </r>
      </set>
      <set comment="kpoint 35">
       <r>   -1.9084    1.0000 </r>
       <r>   -1.5021    1.0000 </r>
       <r>    1.7035    1.0000 </r>
       <r>    2.0956    1.0000 </r>
       <r>    4.8127    1.0135 </r>
       <r>    5.1984    0.4117 </r>
       <r>    5.8016   -0.0000 </r>
       <r>    6.1791   -0.0000 </r>
       <r>    8.2765   -0.0000 </r>
       <r>    8.6595   -0.0000 </r>
       <r>    8.8328   -0.0000 </r>
       <r>    9.1906   -0.0000 </r>
       <r>    9.1969   -0.0000 </r>
       <r>    9.5764   -0.0000 </r>
      </set>
      <set comment="kpoint 36">
       <r>   -2.6331    1.0000 </r>
       <r>    0.2014    1.0000 </r>
       <r>    0.2014    1.0000 </r>
       <r>    2.9479    1.0000 </r>
       <r>    4.1332    1.0000 </r>
       <r>    5.1309    0.6910 </r>
       <r>    6.8238   -0.0000 </r>
       <r>    6.8238   -0.0000 </r>
       <r>    7.7419   -0.0000 </r>
       <r>    7.7419   -0.0000 </r>
       <r>    8.9712   -0.0000 </r>
       <r>    8.9712   -0.0000 </r>
       <r>    9.5070   -0.0000 </r>
       <r>   10.4103   -0.0000 </r>
      </set>
      <set comment="kpoint 37">
       <r>   -2.3611    1.0000 </r>
       <r>   -0.3347    1.0000 </r>
       <r>    0.4677    1.0000 </r>
       <r>    2.4388    1.0000 </r>
       <r>    4.3852    1.0000 </r>
       <r>    5.3822   -0.0275 </r>
       <r>    6.3133   -0.0000 </r>
       <r>    7.0834   -0.0000 </r>
       <r>    7.2708   -0.0000 </r>
       <r>    8.0261   -0.0000 </r>
       <r>    9.0015   -0.0000 </r>
       <r>    9.1896   -0.0000 </r>
       <r>    9.9244   -0.0000 </r>
       <r>    9.9401   -0.0000 </r>
      </set>
      <set comment="kpoint 38">
       <r>   -2.0443    1.0000 </r>
       <r>   -0.8277    1.0000 </r>
       <r>    0.7776    1.0000 </r>
       <r>    1.9629    1.0000 </r>
       <r>    4.6843    1.0014 </r>
       <r>    5.6797   -0.0011 </r>
       <r>    5.8429   -0.0000 </r>
       <r>    6.8196   -0.0000 </r>
       <r>    7.3842   -0.0000 </r>
       <r>    8.3343   -0.0000 </r>
       <r>    8.5356   -0.0000 </r>
       <r>    9.4626   -0.0000 </r>
       <r>    9.4723   -0.0000 </r>
       <r>   10.4752   -0.0000 </r>
      </set>
      <set comment="kpoint 39">
       <r>   -1.6829    1.0000 </r>
       <r>   -1.2773    1.0000 </r>
       <r>    1.1306    1.0000 </r>
       <r>    1.5261    1.0000 </r>
       <r>    5.0277    0.9756 </r>
       <r>    5.4141   -0.0352 </r>
       <r>    6.0201   -0.0000 </r>
       <r>    6.4011   -0.0000 </r>
       <r>    7.7266   -0.0000 </r>
       <r>    8.1105   -0.0000 </r>
       <r>    8.6767   -0.0000 </r>
       <r>    9.0561   -0.0000 </r>
       <r>    9.7762   -0.0000 </r>
       <r>   10.1203   -0.0000 </r>
      </set>
      <set comment="kpoint 40">
       <r>   -2.0896    1.0000 </r>
       <r>   -0.0672    1.0000 </r>
       <r>   -0.0672    1.0000 </r>
       <r>    1.9186    1.0000 </r>
       <r>    4.6415    1.0005 </r>
       <r>    5.6384   -0.0026 </r>
       <r>    6.5722   -0.0000 </r>
       <r>    6.5722   -0.0000 </r>
       <r>    7.5397   -0.0000 </r>
       <r>    7.5397   -0.0000 </r>
       <r>    8.4942   -0.0000 </r>
       <r>    9.4367   -0.0000 </r>
       <r>   10.1709   -0.0000 </r>
       <r>   10.1709   -0.0000 </r>
      </set>
      <set comment="kpoint 41">
       <r>   -1.7734    1.0000 </r>
       <r>   -0.5592    1.0000 </r>
       <r>    0.2442    1.0000 </r>
       <r>    1.4373    1.0000 </r>
       <r>    4.9421    1.0351 </r>
       <r>    5.9383   -0.0000 </r>
       <r>    6.1016   -0.0000 </r>
       <r>    6.8731   -0.0000 </r>
       <r>    7.0834   -0.0000 </r>
       <r>    7.8436   -0.0000 </r>
       <r>    8.0269   -0.0000 </r>
       <r>    8.9828   -0.0000 </r>
       <r>   10.4410   -0.0000 </r>
       <r>   11.1802    0.0000 </r>
      </set>
      <set comment="kpoint 42">
       <r>   -1.4127    1.0000 </r>
       <r>   -1.0079    1.0000 </r>
       <r>    0.5991    1.0000 </r>
       <r>    0.9971    1.0000 </r>
       <r>    5.2860    0.1072 </r>
       <r>    5.6727   -0.0013 </r>
       <r>    6.2802   -0.0000 </r>
       <r>    6.6625   -0.0000 </r>
       <r>    7.2159   -0.0000 </r>
       <r>    7.6007   -0.0000 </r>
       <r>    8.1853   -0.0000 </r>
       <r>    8.5652   -0.0000 </r>
       <r>   10.7401    0.0000 </r>
       <r>   11.0486    0.0000 </r>
      </set>
      <set comment="kpoint 43">
       <r>   -1.4579    1.0000 </r>
       <r>   -0.2466    1.0000 </r>
       <r>   -0.2466    1.0000 </r>
       <r>    0.9525    1.0000 </r>
       <r>    5.2432    0.2376 </r>
       <r>    6.2393   -0.0000 </r>
       <r>    6.4026   -0.0000 </r>
       <r>    6.4026   -0.0000 </r>
       <r>    7.3858   -0.0000 </r>
       <r>    7.3858   -0.0000 </r>
       <r>    7.5585   -0.0000 </r>
       <r>    8.5273   -0.0000 </r>
       <r>   11.4350    0.0000 </r>
       <r>   11.4353    0.0000 </r>
      </set>
      <set comment="kpoint 44">
       <r>   -1.0980    1.0000 </r>
       <r>   -0.6941    1.0000 </r>
       <r>    0.1099    1.0000 </r>
       <r>    0.5098    1.0000 </r>
       <r>    5.5872   -0.0068 </r>
       <r>    5.9739   -0.0000 </r>
       <r>    6.5817   -0.0000 </r>
       <r>    6.7460   -0.0000 </r>
       <r>    6.9644   -0.0000 </r>
       <r>    7.1314   -0.0000 </r>
       <r>    7.7275   -0.0000 </r>
       <r>    8.1083   -0.0000 </r>
       <r>   11.6972    0.0000 </r>
       <r>   11.9053    0.0000 </r>
      </set>
      <set comment="kpoint 45">
       <r>   -0.7391    1.0000 </r>
       <r>   -0.3364    1.0000 </r>
       <r>   -0.3364    1.0000 </r>
       <r>    0.0651    1.0000 </r>
       <r>    5.9312   -0.0000 </r>
       <r>    6.3176   -0.0000 </r>
       <r>    6.3176   -0.0000 </r>
       <r>    6.7035   -0.0000 </r>
       <r>    6.9241   -0.0000 </r>
       <r>    7.3065   -0.0000 </r>
       <r>    7.3065   -0.0000 </r>
       <r>    7.6882   -0.0000 </r>
       <r>   12.4954    0.0000 </r>
       <r>   12.5744    0.0000 </r>
      </set>
      <set comment="kpoint 46">
       <r>   -3.8625    1.0000 </r>
       <r>    2.1885    1.0000 </r>
       <r>    2.1885    1.0000 </r>
       <r>    2.1885    1.0000 </r>
       <r>    4.6118    1.0002 </r>
       <r>    4.6118    1.0002 </r>
       <r>    4.6118    1.0002 </r>
       <r>    8.0277   -0.0000 </r>
       <r>    8.0277   -0.0000 </r>
       <r>    8.0277   -0.0000 </r>
       <r>    9.7401   -0.0000 </r>
       <r>    9.7401   -0.0000 </r>
       <r>    9.7401   -0.0000 </r>
       <r>   11.1987    0.0000 </r>
      </set>
      <set comment="kpoint 47">
       <r>   -3.7712    1.0000 </r>
       <r>    1.4897    1.0000 </r>
       <r>    2.2755    1.0000 </r>
       <r>    2.2755    1.0000 </r>
       <r>    4.6947    1.0017 </r>
       <r>    4.6947    1.0017 </r>
       <r>    5.4677   -0.0298 </r>
       <r>    7.3753   -0.0000 </r>
       <r>    7.3753   -0.0000 </r>
       <r>    8.1147   -0.0000 </r>
       <r>    9.5203   -0.0000 </r>
       <r>    9.5203   -0.0000 </r>
       <r>    9.8211   -0.0000 </r>
       <r>   11.2885    0.0000 </r>
      </set>
      <set comment="kpoint 48">
       <r>   -3.6342    1.0000 </r>
       <r>    0.8266    1.0000 </r>
       <r>    2.4059    1.0000 </r>
       <r>    2.4059    1.0000 </r>
       <r>    4.8167    1.0143 </r>
       <r>    4.8167    1.0143 </r>
       <r>    6.3640   -0.0000 </r>
       <r>    6.7530   -0.0000 </r>
       <r>    6.7530   -0.0000 </r>
       <r>    8.2468   -0.0000 </r>
       <r>    9.0356   -0.0000 </r>
       <r>    9.0356   -0.0000 </r>
       <r>    9.9427   -0.0000 </r>
       <r>   11.4221    0.0000 </r>
      </set>
      <set comment="kpoint 49">
       <r>   -3.4517    1.0000 </r>
       <r>    0.2037    1.0000 </r>
       <r>    2.5792    1.0000 </r>
       <r>    2.5792    1.0000 </r>
       <r>    4.9707    1.0282 </r>
       <r>    4.9707    1.0282 </r>
       <r>    6.1757   -0.0000 </r>
       <r>    6.1757   -0.0000 </r>
       <r>    7.2897   -0.0000 </r>
       <r>    8.4283   -0.0000 </r>
       <r>    8.5067   -0.0000 </r>
       <r>    8.5067   -0.0000 </r>
       <r>   10.1046   -0.0000 </r>
       <r>   11.6009    0.0000 </r>
      </set>
      <set comment="kpoint 50">
       <r>   -3.2238    1.0000 </r>
       <r>   -0.3775    1.0000 </r>
       <r>    2.7948    1.0000 </r>
       <r>    2.7948    1.0000 </r>
       <r>    5.1153    0.7493 </r>
       <r>    5.1153    0.7493 </r>
       <r>    5.6878   -0.0009 </r>
       <r>    5.6878   -0.0009 </r>
       <r>    7.9903   -0.0000 </r>
       <r>    7.9903   -0.0000 </r>
       <r>    8.2058   -0.0000 </r>
       <r>    8.6941   -0.0000 </r>
       <r>   10.3070   -0.0000 </r>
       <r>   11.2265    0.0000 </r>
      </set>
      <set comment="kpoint 51">
       <r>   -2.9507    1.0000 </r>
       <r>   -0.9159    1.0000 </r>
       <r>    3.0510    1.0000 </r>
       <r>    3.0510    1.0000 </r>
       <r>    4.9631    1.0310 </r>
       <r>    4.9631    1.0310 </r>
       <r>    5.5764   -0.0081 </r>
       <r>    5.5764   -0.0081 </r>
       <r>    7.5068   -0.0000 </r>
       <r>    7.5068   -0.0000 </r>
       <r>    8.7914   -0.0000 </r>
       <r>    9.3588   -0.0000 </r>
       <r>   10.5497   -0.0000 </r>
       <r>   10.7311    0.0000 </r>
      </set>
      <set comment="kpoint 52">
       <r>   -2.6326    1.0000 </r>
       <r>   -1.4111    1.0000 </r>
       <r>    3.3429    1.0000 </r>
       <r>    3.3429    1.0000 </r>
       <r>    4.5561    1.0001 </r>
       <r>    4.5561    1.0001 </r>
       <r>    5.7955   -0.0001 </r>
       <r>    5.7955   -0.0001 </r>
       <r>    7.0729   -0.0000 </r>
       <r>    7.0729   -0.0000 </r>
       <r>    9.1261   -0.0000 </r>
       <r>   10.2734   -0.0000 </r>
       <r>   10.3322   -0.0000 </r>
       <r>   10.8327    0.0000 </r>
      </set>
      <set comment="kpoint 53">
       <r>   -2.2698    1.0000 </r>
       <r>   -1.8625    1.0000 </r>
       <r>    3.6399    1.0000 </r>
       <r>    3.6399    1.0000 </r>
       <r>    4.1857    1.0000 </r>
       <r>    4.1857    1.0000 </r>
       <r>    6.0355   -0.0000 </r>
       <r>    6.0355   -0.0000 </r>
       <r>    6.7405   -0.0000 </r>
       <r>    6.7405   -0.0000 </r>
       <r>    9.4726   -0.0000 </r>
       <r>    9.8540   -0.0000 </r>
       <r>   11.1559    0.0000 </r>
       <r>   11.3292    0.0000 </r>
      </set>
      <set comment="kpoint 54">
       <r>   -3.6798    1.0000 </r>
       <r>    1.5775    1.0000 </r>
       <r>    1.5775    1.0000 </r>
       <r>    2.3623    1.0000 </r>
       <r>    4.7742    1.0076 </r>
       <r>    5.5470   -0.0126 </r>
       <r>    5.5470   -0.0126 </r>
       <r>    6.7213   -0.0000 </r>
       <r>    7.4655   -0.0000 </r>
       <r>    7.4655   -0.0000 </r>
       <r>    9.6031   -0.0000 </r>
       <r>    9.6031   -0.0000 </r>
       <r>    9.9013   -0.0000 </r>
       <r>   11.4871    0.0000 </r>
      </set>
      <set comment="kpoint 55">
       <r>   -3.5429    1.0000 </r>
       <r>    0.9149    1.0000 </r>
       <r>    1.7089    1.0000 </r>
       <r>    2.4920    1.0000 </r>
       <r>    4.8854    1.0294 </r>
       <r>    5.6591   -0.0017 </r>
       <r>    6.1069   -0.0000 </r>
       <r>    6.4341   -0.0000 </r>
       <r>    6.8514   -0.0000 </r>
       <r>    7.6063   -0.0000 </r>
       <r>    9.1210   -0.0000 </r>
       <r>    9.7234   -0.0000 </r>
       <r>    9.7277   -0.0000 </r>
       <r>   11.6966    0.0000 </r>
      </set>
      <set comment="kpoint 56">
       <r>   -3.3605    1.0000 </r>
       <r>    0.2924    1.0000 </r>
       <r>    1.8837    1.0000 </r>
       <r>    2.6641    1.0000 </r>
       <r>    4.9847    1.0209 </r>
       <r>    5.5838   -0.0072 </r>
       <r>    5.7653   -0.0001 </r>
       <r>    6.3187   -0.0000 </r>
       <r>    7.3142   -0.0000 </r>
       <r>    7.8329   -0.0000 </r>
       <r>    8.5950   -0.0000 </r>
       <r>    9.2788   -0.0000 </r>
       <r>    9.8942   -0.0000 </r>
       <r>   11.1250    0.0000 </r>
      </set>
      <set comment="kpoint 57">
       <r>   -3.1328    1.0000 </r>
       <r>   -0.2883    1.0000 </r>
       <r>    2.1016    1.0000 </r>
       <r>    2.8769    1.0000 </r>
       <r>    4.7932    1.0102 </r>
       <r>    5.4347   -0.0349 </r>
       <r>    5.5698   -0.0090 </r>
       <r>    6.1644   -0.0000 </r>
       <r>    7.8758   -0.0000 </r>
       <r>    8.0835   -0.0000 </r>
       <r>    8.4514   -0.0000 </r>
       <r>    8.7901   -0.0000 </r>
       <r>   10.1039   -0.0000 </r>
       <r>   10.5898   -0.0000 </r>
      </set>
      <set comment="kpoint 58">
       <r>   -2.8599    1.0000 </r>
       <r>   -0.8264    1.0000 </r>
       <r>    2.3615    1.0000 </r>
       <r>    3.1251    1.0000 </r>
       <r>    4.3494    1.0000 </r>
       <r>    5.1085    0.7731 </r>
       <r>    5.6265   -0.0033 </r>
       <r>    6.3457   -0.0000 </r>
       <r>    7.6127   -0.0000 </r>
       <r>    8.1757   -0.0000 </r>
       <r>    8.3150   -0.0000 </r>
       <r>    9.3938   -0.0000 </r>
       <r>   10.0912   -0.0000 </r>
       <r>   10.3622   -0.0000 </r>
      </set>
      <set comment="kpoint 59">
       <r>   -2.5420    1.0000 </r>
       <r>   -1.3212    1.0000 </r>
       <r>    2.6618    1.0000 </r>
       <r>    3.3758    1.0000 </r>
       <r>    3.9422    1.0000 </r>
       <r>    4.6523    1.0007 </r>
       <r>    5.9008   -0.0000 </r>
       <r>    6.5490   -0.0000 </r>
       <r>    7.2349   -0.0000 </r>
       <r>    7.8732   -0.0000 </r>
       <r>    8.4842   -0.0000 </r>
       <r>    9.6308   -0.0000 </r>
       <r>   10.3331   -0.0000 </r>
       <r>   10.7171    0.0000 </r>
      </set>
      <set comment="kpoint 60">
       <r>   -2.1794    1.0000 </r>
       <r>   -1.7724    1.0000 </r>
       <r>    2.9968    1.0000 </r>
       <r>    3.3330    1.0000 </r>
       <r>    3.9030    1.0000 </r>
       <r>    4.2379    1.0000 </r>
       <r>    6.2128   -0.0000 </r>
       <r>    6.5086   -0.0000 </r>
       <r>    7.1882   -0.0000 </r>
       <r>    7.4808   -0.0000 </r>
       <r>    8.8274   -0.0000 </r>
       <r>    9.2094   -0.0000 </r>
       <r>   10.8926    0.0000 </r>
       <r>   11.2842    0.0000 </r>
      </set>
      <set comment="kpoint 61">
       <r>   -3.4061    1.0000 </r>
       <r>    1.0472    1.0000 </r>
       <r>    1.0472    1.0000 </r>
       <r>    2.6204    1.0000 </r>
       <r>    4.9410    1.0352 </r>
       <r>    5.5464   -0.0128 </r>
       <r>    6.4996   -0.0000 </r>
       <r>    6.4996   -0.0000 </r>
       <r>    7.0366   -0.0000 </r>
       <r>    7.0366   -0.0000 </r>
       <r>    9.2500   -0.0000 </r>
       <r>    9.2500   -0.0000 </r>
       <r>   10.1428   -0.0000 </r>
       <r>   11.0898    0.0000 </r>
      </set>
      <set comment="kpoint 62">
       <r>   -3.2239    1.0000 </r>
       <r>    0.4255    1.0000 </r>
       <r>    1.2233    1.0000 </r>
       <r>    2.7895    1.0000 </r>
       <r>    4.7071    1.0022 </r>
       <r>    5.3572   -0.0112 </r>
       <r>    6.2596   -0.0000 </r>
       <r>    6.8446   -0.0000 </r>
       <r>    7.0296   -0.0000 </r>
       <r>    7.6090   -0.0000 </r>
       <r>    8.7299   -0.0000 </r>
       <r>    9.4243   -0.0000 </r>
       <r>   10.0091   -0.0000 </r>
       <r>   10.5161   -0.0000 </r>
      </set>
      <set comment="kpoint 63">
       <r>   -2.9964    1.0000 </r>
       <r>   -0.1546    1.0000 </r>
       <r>    1.4429    1.0000 </r>
       <r>    2.9938    1.0000 </r>
       <r>    4.2224    1.0000 </r>
       <r>    5.5085   -0.0205 </r>
       <r>    5.7538   -0.0002 </r>
       <r>    6.9860   -0.0000 </r>
       <r>    7.2916   -0.0000 </r>
       <r>    8.2319   -0.0000 </r>
       <r>    8.5146   -0.0000 </r>
       <r>    9.6091   -0.0000 </r>
       <r>    9.6514   -0.0000 </r>
       <r>    9.9773   -0.0000 </r>
      </set>
      <set comment="kpoint 64">
       <r>   -2.7237    1.0000 </r>
       <r>   -0.6922    1.0000 </r>
       <r>    1.7054    1.0000 </r>
       <r>    3.1990    1.0000 </r>
       <r>    3.7746    1.0000 </r>
       <r>    5.2521    0.2071 </r>
       <r>    5.7474   -0.0002 </r>
       <r>    7.1482   -0.0000 </r>
       <r>    7.5602   -0.0000 </r>
       <r>    7.8181   -0.0000 </r>
       <r>    9.1641   -0.0000 </r>
       <r>    9.4266   -0.0000 </r>
       <r>    9.4758   -0.0000 </r>
       <r>    9.9787   -0.0000 </r>
      </set>
      <set comment="kpoint 65">
       <r>   -2.4061    1.0000 </r>
       <r>   -1.1865    1.0000 </r>
       <r>    2.0100    1.0000 </r>
       <r>    3.1118    1.0000 </r>
       <r>    3.6938    1.0000 </r>
       <r>    4.7854    1.0091 </r>
       <r>    6.0363   -0.0000 </r>
       <r>    7.0646   -0.0000 </r>
       <r>    7.7327   -0.0000 </r>
       <r>    7.8638   -0.0000 </r>
       <r>    8.7324   -0.0000 </r>
       <r>    9.0128   -0.0000 </r>
       <r>   10.0362   -0.0000 </r>
       <r>   10.6795    0.0000 </r>
      </set>
      <set comment="kpoint 66">
       <r>   -2.0439    1.0000 </r>
       <r>   -1.6372    1.0000 </r>
       <r>    2.3547    1.0000 </r>
       <r>    2.7335    1.0000 </r>
       <r>    3.9854    1.0000 </r>
       <r>    4.3608    1.0000 </r>
       <r>    6.3657   -0.0000 </r>
       <r>    6.7242   -0.0000 </r>
       <r>    7.9844   -0.0000 </r>
       <r>    8.2066   -0.0000 </r>
       <r>    8.3340   -0.0000 </r>
       <r>    8.5896   -0.0000 </r>
       <r>   10.4199   -0.0000 </r>
       <r>   10.8037    0.0000 </r>
      </set>
      <set comment="kpoint 67">
       <r>   -3.0419    1.0000 </r>
       <r>    0.6026    1.0000 </r>
       <r>    0.6026    1.0000 </r>
       <r>    2.9499    1.0000 </r>
       <r>    4.1798    1.0000 </r>
       <r>    5.4680   -0.0297 </r>
       <r>    6.4827   -0.0000 </r>
       <r>    6.4827   -0.0000 </r>
       <r>    7.7103   -0.0000 </r>
       <r>    7.7103   -0.0000 </r>
       <r>    8.9191   -0.0000 </r>
       <r>    8.9191   -0.0000 </r>
       <r>    9.9388   -0.0000 </r>
       <r>   10.4640   -0.0000 </r>
      </set>
      <set comment="kpoint 68">
       <r>   -2.8147    1.0000 </r>
       <r>    0.0234    1.0000 </r>
       <r>    0.8236    1.0000 </r>
       <r>    3.1104    1.0000 </r>
       <r>    3.6900    1.0000 </r>
       <r>    5.6665   -0.0015 </r>
       <r>    5.9398   -0.0000 </r>
       <r>    6.7104   -0.0000 </r>
       <r>    7.8296   -0.0000 </r>
       <r>    8.4798   -0.0000 </r>
       <r>    8.5902   -0.0000 </r>
       <r>    9.2083   -0.0000 </r>
       <r>    9.3969   -0.0000 </r>
       <r>   10.3759   -0.0000 </r>
      </set>
      <set comment="kpoint 69">
       <r>   -2.5423    1.0000 </r>
       <r>   -0.5134    1.0000 </r>
       <r>    1.0880    1.0000 </r>
       <r>    2.9786    1.0000 </r>
       <r>    3.5669    1.0000 </r>
       <r>    5.4303   -0.0352 </r>
       <r>    5.9167   -0.0000 </r>
       <r>    6.9731   -0.0000 </r>
       <r>    7.7005   -0.0000 </r>
       <r>    8.3630   -0.0000 </r>
       <r>    8.8927   -0.0000 </r>
       <r>    9.1952   -0.0000 </r>
       <r>    9.8516   -0.0000 </r>
       <r>   10.0226   -0.0000 </r>
      </set>
      <set comment="kpoint 70">
       <r>   -2.2252    1.0000 </r>
       <r>   -1.0071    1.0000 </r>
       <r>    1.3954    1.0000 </r>
       <r>    2.5570    1.0000 </r>
       <r>    3.8150    1.0000 </r>
       <r>    4.9600    1.0319 </r>
       <r>    6.2113   -0.0000 </r>
       <r>    7.2755   -0.0000 </r>
       <r>    7.3190   -0.0000 </r>
       <r>    8.4277   -0.0000 </r>
       <r>    8.5745   -0.0000 </r>
       <r>    9.5552   -0.0000 </r>
       <r>    9.6227   -0.0000 </r>
       <r>   10.6987    0.0000 </r>
      </set>
      <set comment="kpoint 71">
       <r>   -1.8634    1.0000 </r>
       <r>   -1.4572    1.0000 </r>
       <r>    1.7448    1.0000 </r>
       <r>    2.1340    1.0000 </r>
       <r>    4.1481    1.0000 </r>
       <r>    4.5318    1.0000 </r>
       <r>    6.5469   -0.0000 </r>
       <r>    6.9194   -0.0000 </r>
       <r>    7.6187   -0.0000 </r>
       <r>    8.0029   -0.0000 </r>
       <r>    8.8809   -0.0000 </r>
       <r>    9.2354   -0.0000 </r>
       <r>    9.9062   -0.0000 </r>
       <r>   10.2854   -0.0000 </r>
      </set>
      <set comment="kpoint 72">
       <r>   -2.5878    1.0000 </r>
       <r>    0.2455    1.0000 </r>
       <r>    0.2455    1.0000 </r>
       <r>    2.9342    1.0000 </r>
       <r>    3.5245    1.0000 </r>
       <r>    5.8759   -0.0000 </r>
       <r>    6.1608   -0.0000 </r>
       <r>    6.1608   -0.0000 </r>
       <r>    8.4127   -0.0000 </r>
       <r>    8.4127   -0.0000 </r>
       <r>    8.8523   -0.0000 </r>
       <r>    9.0725   -0.0000 </r>
       <r>    9.0725   -0.0000 </r>
       <r>   10.8644    0.0000 </r>
      </set>
      <set comment="kpoint 73">
       <r>   -2.3159    1.0000 </r>
       <r>   -0.2903    1.0000 </r>
       <r>    0.5115    1.0000 </r>
       <r>    2.4685    1.0000 </r>
       <r>    3.7294    1.0000 </r>
       <r>    5.6489   -0.0021 </r>
       <r>    6.1303   -0.0000 </r>
       <r>    6.4217   -0.0000 </r>
       <r>    7.9929   -0.0000 </r>
       <r>    8.3460   -0.0000 </r>
       <r>    8.7408   -0.0000 </r>
       <r>    9.2463   -0.0000 </r>
       <r>    9.9943   -0.0000 </r>
       <r>   10.6385    0.0000 </r>
      </set>
      <set comment="kpoint 74">
       <r>   -1.9992    1.0000 </r>
       <r>   -0.7831    1.0000 </r>
       <r>    0.8209    1.0000 </r>
       <r>    2.0012    1.0000 </r>
       <r>    4.0196    1.0000 </r>
       <r>    5.1772    0.5007 </r>
       <r>    6.4276   -0.0000 </r>
       <r>    6.7239   -0.0000 </r>
       <r>    7.5553   -0.0000 </r>
       <r>    7.8792   -0.0000 </r>
[...]
       <r>   -0.5204    1.0000 </r>
       <r>    0.6678    1.0000 </r>
       <r>    0.6678    1.0000 </r>
       <r>    1.3658    1.0000 </r>
       <r>    2.0448    1.0000 </r>
       <r>    2.7374    1.0000 </r>
       <r>    2.7374    1.0000 </r>
       <r>    3.9039    1.0000 </r>
       <r>   11.4735    0.0000 </r>
       <r>   12.0789    0.0000 </r>
       <r>   12.0790    0.0000 </r>
       <r>   12.4851    0.0000 </r>
       <r>   12.4857    0.0000 </r>
       <r>   12.6677    0.0000 </r>
      </set>
      <set comment="kpoint 160">
       <r>   -0.1654    1.0000 </r>
       <r>    0.2315    1.0000 </r>
       <r>    1.0009    1.0000 </r>
       <r>    1.3205    1.0000 </r>
       <r>    2.0017    1.0000 </r>
       <r>    2.3195    1.0000 </r>
       <r>    3.0799    1.0000 </r>
       <r>    3.4696    1.0000 </r>
       <r>   11.7610    0.0000 </r>
       <r>   12.0180    0.0000 </r>
       <r>   12.5684    0.0000 </r>
       <r>   12.6313    0.0000 </r>
       <r>   12.7269    0.0000 </r>
       <r>   13.0060    0.0000 </r>
      </set>
      <set comment="kpoint 161">
       <r>    0.1867    1.0000 </r>
       <r>    0.5782    1.0000 </r>
       <r>    0.5782    1.0000 </r>
       <r>    0.9560    1.0000 </r>
       <r>    2.2760    1.0000 </r>
       <r>    2.6503    1.0000 </r>
       <r>    2.6503    1.0000 </r>
       <r>    3.0363    1.0000 </r>
       <r>   12.0705    0.0000 </r>
       <r>   12.3736    0.0000 </r>
       <r>   12.3736    0.0000 </r>
       <r>   12.6971    0.0000 </r>
       <r>   13.2435    0.0000 </r>
       <r>   13.3147    0.0000 </r>
      </set>
      <set comment="kpoint 162">
       <r>   -0.2103    1.0000 </r>
       <r>    0.9560    1.0000 </r>
       <r>    0.9560    1.0000 </r>
       <r>    0.9560    1.0000 </r>
       <r>    2.2761    1.0000 </r>
       <r>    2.2761    1.0000 </r>
       <r>    2.2761    1.0000 </r>
       <r>    3.4261    1.0000 </r>
       <r>   12.3933    0.0000 </r>
       <r>   12.3933    0.0000 </r>
       <r>   12.3933    0.0000 </r>
       <r>   12.9266    0.0000 </r>
       <r>   12.9266    0.0000 </r>
       <r>   12.9267    0.0000 </r>
      </set>
      <set comment="kpoint 163">
       <r>    0.1418    1.0000 </r>
       <r>    0.5334    1.0000 </r>
       <r>    1.2300    1.0000 </r>
       <r>    1.2300    1.0000 </r>
       <r>    1.9155    1.0000 </r>
       <r>    1.9155    1.0000 </r>
       <r>    2.6067    1.0000 </r>
       <r>    2.9928    1.0000 </r>
       <r>   12.6105    0.0000 </r>
       <r>   12.6105    0.0000 </r>
       <r>   13.0182    0.0000 </r>
       <r>   13.0183    0.0000 </r>
       <r>   13.2123    0.0000 </r>
       <r>   13.2253    0.0000 </r>
      </set>
      <set comment="kpoint 164">
       <r>    0.4885    1.0000 </r>
       <r>    0.8662    1.0000 </r>
       <r>    0.8662    1.0000 </r>
       <r>    1.1847    1.0000 </r>
       <r>    1.8723    1.0000 </r>
       <r>    2.1890    1.0000 </r>
       <r>    2.1890    1.0000 </r>
       <r>    2.5631    1.0000 </r>
       <r>   12.9261    0.0000 </r>
       <r>   13.1460    0.0000 </r>
       <r>   13.1520    0.0000 </r>
       <r>   13.4473    0.0000 </r>
       <r>   13.4731    0.0000 </r>
       <r>   13.5081    0.0000 </r>
      </set>
      <set comment="kpoint 165">
       <r>    0.8212    1.0000 </r>
       <r>    1.1394    1.0000 </r>
       <r>    1.1394    1.0000 </r>
       <r>    1.1394    1.0000 </r>
       <r>    1.8292    1.0000 </r>
       <r>    1.8292    1.0000 </r>
       <r>    1.8292    1.0000 </r>
       <r>    2.1455    1.0000 </r>
       <r>   13.6103    0.0000 </r>
       <r>   13.6139    0.0000 </r>
       <r>   13.6181    0.0000 </r>
       <r>   13.6782    0.0000 </r>
       <r>   13.6844    0.0000 </r>
       <r>   13.7109    0.0000 </r>
      </set>
     </set>
    </set>
   </array>
  </eigenvalues>
  <separator name="orbital magnetization" >
   <v name="MAGDIPOLOUT">      0.00000000      0.00000000      0.00000000</v>
  </separator>
  <dos>
   <i name="efermi">      5.17737648 </i>
   <total>
    <array>
     <dimension dim="1">gridpoints</dimension>
     <dimension dim="2">spin</dimension>
     <field>energy</field>
     <field>total</field>
     <field>integrated</field>
     <set>
      <set comment="spin 1">
       <r>    -5.9997     0.0000     0.0000 </r>
       <r>    -5.9274     0.0000     0.0000 </r>
       <r>    -5.8550     0.0000     0.0000 </r>
       <r>    -5.7826     0.0000     0.0000 </r>
       <r>    -5.7103     0.0000     0.0000 </r>
       <r>    -5.6379    -0.0000    -0.0000 </r>
       <r>    -5.5655    -0.0000    -0.0000 </r>
       <r>    -5.4931    -0.0000    -0.0000 </r>
       <r>    -5.4208    -0.0000    -0.0000 </r>
       <r>    -5.3484    -0.0000    -0.0000 </r>
       <r>    -5.2760    -0.0000    -0.0000 </r>
       <r>    -5.2037    -0.0000    -0.0000 </r>
       <r>    -5.1313    -0.0000    -0.0000 </r>
       <r>    -5.0589    -0.0000    -0.0000 </r>
       <r>    -4.9866    -0.0000    -0.0000 </r>
       <r>    -4.9142    -0.0000    -0.0000 </r>
       <r>    -4.8418    -0.0000    -0.0000 </r>
       <r>    -4.7695    -0.0000    -0.0000 </r>
       <r>    -4.6971    -0.0000    -0.0000 </r>
       <r>    -4.6247    -0.0000    -0.0000 </r>
       <r>    -4.5523    -0.0000    -0.0000 </r>
       <r>    -4.4800    -0.0001    -0.0000 </r>
       <r>    -4.4076    -0.0007    -0.0001 </r>
       <r>    -4.3352    -0.0022    -0.0002 </r>
       <r>    -4.2629    -0.0052    -0.0006 </r>
       <r>    -4.1905    -0.0075    -0.0011 </r>
       <r>    -4.1181    -0.0011    -0.0012 </r>
       <r>    -4.0458     0.0258     0.0006 </r>
       <r>    -3.9734     0.0797     0.0064 </r>
       <r>    -3.9010     0.1527     0.0175 </r>
       <r>    -3.8287     0.2275     0.0339 </r>
       <r>    -3.7563     0.2908     0.0550 </r>
       <r>    -3.6839     0.3403     0.0796 </r>
       <r>    -3.6116     0.3808     0.1071 </r>
       <r>    -3.5392     0.4166     0.1373 </r>
       <r>    -3.4668     0.4484     0.1697 </r>
       <r>    -3.3944     0.4781     0.2043 </r>
       <r>    -3.3221     0.5087     0.2412 </r>
       <r>    -3.2497     0.5377     0.2801 </r>
       <r>    -3.1773     0.5603     0.3206 </r>
       <r>    -3.1050     0.5825     0.3628 </r>
       <r>    -3.0326     0.6119     0.4071 </r>
       <r>    -2.9602     0.6406     0.4534 </r>
       <r>    -2.8879     0.6575     0.5010 </r>
       <r>    -2.8155     0.6694     0.5495 </r>
       <r>    -2.7431     0.6922     0.5995 </r>
       <r>    -2.6708     0.7275     0.6522 </r>
       <r>    -2.5984     0.7555     0.7069 </r>
       <r>    -2.5260     0.7594     0.7618 </r>
       <r>    -2.4537     0.7575     0.8166 </r>
       <r>    -2.3813     0.7831     0.8733 </r>
       <r>    -2.3089     0.8307     0.9334 </r>
       <r>    -2.2365     0.8595     0.9956 </r>
       <r>    -2.1642     0.8552     1.0575 </r>
       <r>    -2.0918     0.8468     1.1188 </r>
       <r>    -2.0194     0.8624     1.1812 </r>
       <r>    -1.9471     0.8986     1.2462 </r>
       <r>    -1.8747     0.9359     1.3140 </r>
       <r>    -1.8023     0.9607     1.3835 </r>
       <r>    -1.7300     0.9671     1.4535 </r>
       <r>    -1.6576     0.9540     1.5225 </r>
       <r>    -1.5852     0.9394     1.5905 </r>
       <r>    -1.5129     0.9614     1.6601 </r>
       <r>    -1.4405     1.0289     1.7345 </r>
       <r>    -1.3681     1.0890     1.8134 </r>
       <r>    -1.2958     1.0863     1.8920 </r>
       <r>    -1.2234     1.0360     1.9669 </r>
       <r>    -1.1510     1.0076     2.0399 </r>
       <r>    -1.0786     1.0434     2.1154 </r>
       <r>    -1.0063     1.1116     2.1958 </r>
       <r>    -0.9339     1.1530     2.2793 </r>
       <r>    -0.8615     1.1578     2.3630 </r>
       <r>    -0.7892     1.1565     2.4467 </r>
       <r>    -0.7168     1.1584     2.5306 </r>
       <r>    -0.6444     1.1530     2.6140 </r>
       <r>    -0.5721     1.1449     2.6969 </r>
       <r>    -0.4997     1.1522     2.7803 </r>
       <r>    -0.4273     1.1892     2.8663 </r>
       <r>    -0.3550     1.2522     2.9569 </r>
       <r>    -0.2826     1.3078     3.0516 </r>
       <r>    -0.2102     1.3144     3.1467 </r>
       <r>    -0.1379     1.2672     3.2384 </r>
       <r>    -0.0655     1.2049     3.3256 </r>
       <r>     0.0069     1.1830     3.4112 </r>
       <r>     0.0793     1.2396     3.5009 </r>
       <r>     0.1516     1.3508     3.5987 </r>
       <r>     0.2240     1.4319     3.7023 </r>
       <r>     0.2964     1.4208     3.8051 </r>
       <r>     0.3687     1.3502     3.9029 </r>
       <r>     0.4411     1.3074     3.9975 </r>
       <r>     0.5135     1.3317     4.0938 </r>
       <r>     0.5858     1.3793     4.1937 </r>
       <r>     0.6582     1.3975     4.2948 </r>
       <r>     0.7306     1.3973     4.3959 </r>
       <r>     0.8029     1.4194     4.4986 </r>
       <r>     0.8753     1.4659     4.6047 </r>
       <r>     0.9477     1.5128     4.7142 </r>
       <r>     1.0201     1.5513     4.8265 </r>
       <r>     1.0924     1.5740     4.9404 </r>
       <r>     1.1648     1.5529     5.0528 </r>
       <r>     1.2372     1.4848     5.1602 </r>
       <r>     1.3095     1.4358     5.2641 </r>
       <r>     1.3819     1.4731     5.3707 </r>
       <r>     1.4543     1.5623     5.4838 </r>
       <r>     1.5266     1.6086     5.6002 </r>
       <r>     1.5990     1.5782     5.7144 </r>
       <r>     1.6714     1.5070     5.8235 </r>
       <r>     1.7437     1.4303     5.9270 </r>
       <r>     1.8161     1.3728     6.0263 </r>
       <r>     1.8885     1.3687     6.1254 </r>
       <r>     1.9608     1.4360     6.2293 </r>
       <r>     2.0332     1.5428     6.3410 </r>
       <r>     2.1056     1.6254     6.4586 </r>
       <r>     2.1780     1.6459     6.5777 </r>
       <r>     2.2503     1.6218     6.6951 </r>
       <r>     2.3227     1.5999     6.8109 </r>
       <r>     2.3951     1.6127     6.9276 </r>
       <r>     2.4674     1.6538     7.0473 </r>
       <r>     2.5398     1.6859     7.1693 </r>
       <r>     2.6122     1.6842     7.2912 </r>
       <r>     2.6845     1.6546     7.4109 </r>
       <r>     2.7569     1.6120     7.5276 </r>
       <r>     2.8293     1.5944     7.6429 </r>
       <r>     2.9016     1.6684     7.7637 </r>
       <r>     2.9740     1.8279     7.8960 </r>
       <r>     3.0464     1.9415     8.0365 </r>
       <r>     3.1187     1.9024     8.1741 </r>
       <r>     3.1911     1.7733     8.3025 </r>
       <r>     3.2635     1.6912     8.4249 </r>
       <r>     3.3359     1.6887     8.5471 </r>
       <r>     3.4082     1.6931     8.6696 </r>
       <r>     3.4806     1.6675     8.7903 </r>
       <r>     3.5530     1.6653     8.9108 </r>
       <r>     3.6253     1.7324     9.0362 </r>
       <r>     3.6977     1.8152     9.1675 </r>
       <r>     3.7701     1.8306     9.3000 </r>
       <r>     3.8424     1.8052     9.4306 </r>
       <r>     3.9148     1.8386     9.5637 </r>
       <r>     3.9872     1.9283     9.7032 </r>
       <r>     4.0595     1.9713     9.8459 </r>
       <r>     4.1319     1.9458     9.9867 </r>
       <r>     4.2043     1.9362    10.1269 </r>
       <r>     4.2766     1.9717    10.2695 </r>
       <r>     4.3490     1.9776    10.4127 </r>
       <r>     4.4214     1.9088    10.5508 </r>
       <r>     4.4938     1.8233    10.6827 </r>
       <r>     4.5661     1.7872    10.8121 </r>
       <r>     4.6385     1.7910    10.9417 </r>
       <r>     4.7109     1.8105    11.0727 </r>
       <r>     4.7832     1.8705    11.2081 </r>
       <r>     4.8556     1.9908    11.3522 </r>
       <r>     4.9280     2.1133    11.5051 </r>
       <r>     5.0003     2.1382    11.6598 </r>
       <r>     5.0727     2.0343    11.8070 </r>
       <r>     5.1451     1.8739    11.9427 </r>
       <r>     5.2174     1.7530    12.0695 </r>
       <r>     5.2898     1.7326    12.1949 </r>
       <r>     5.3622     1.8346    12.3277 </r>
       <r>     5.4346     2.0199    12.4738 </r>
       <r>     5.5069     2.2120    12.6339 </r>
       <r>     5.5793     2.3600    12.8047 </r>
       <r>     5.6517     2.4136    12.9794 </r>
       <r>     5.7240     2.3022    13.1460 </r>
       <r>     5.7964     2.0418    13.2938 </r>
       <r>     5.8688     1.7900    13.4233 </r>
       <r>     5.9411     1.7076    13.5469 </r>
       <r>     6.0135     1.8080    13.6777 </r>
       <r>     6.0859     1.9818    13.8211 </r>
       <r>     6.1582     2.1331    13.9755 </r>
       <r>     6.2306     2.2477    14.1382 </r>
       <r>     6.3030     2.3383    14.3074 </r>
       <r>     6.3753     2.3687    14.4788 </r>
       <r>     6.4477     2.2850    14.6442 </r>
       <r>     6.5201     2.1202    14.7976 </r>
       <r>     6.5925     2.0037    14.9426 </r>
       <r>     6.6648     2.0282    15.0894 </r>
       <r>     6.7372     2.1423    15.2444 </r>
       <r>     6.8096     2.2259    15.4055 </r>
       <r>     6.8819     2.2456    15.5680 </r>
       <r>     6.9543     2.2514    15.7310 </r>
       <r>     7.0267     2.2433    15.8933 </r>
       <r>     7.0990     2.1798    16.0511 </r>
       <r>     7.1714     2.1153    16.2041 </r>
       <r>     7.2438     2.1634    16.3607 </r>
       <r>     7.3161     2.3113    16.5280 </r>
       <r>     7.3885     2.4177    16.7029 </r>
       <r>     7.4609     2.4119    16.8775 </r>
       <r>     7.5332     2.3619    17.0484 </r>
       <r>     7.6056     2.3309    17.2171 </r>
       <r>     7.6780     2.3007    17.3836 </r>
       <r>     7.7504     2.2614    17.5472 </r>
       <r>     7.8227     2.2476    17.7099 </r>
       <r>     7.8951     2.2661    17.8739 </r>
       <r>     7.9675     2.2885    18.0395 </r>
       <r>     8.0398     2.3196    18.2074 </r>
       <r>     8.1122     2.3909    18.3804 </r>
       <r>     8.1846     2.4776    18.5597 </r>
       <r>     8.2569     2.5015    18.7407 </r>
       <r>     8.3293     2.4501    18.9181 </r>
       <r>     8.4017     2.4126    19.0927 </r>
       <r>     8.4740     2.4441    19.2695 </r>
       <r>     8.5464     2.4805    19.4490 </r>
       <r>     8.6188     2.4579    19.6269 </r>
       <r>     8.6911     2.4331    19.8030 </r>
       <r>     8.7635     2.4809    19.9825 </r>
       <r>     8.8359     2.5498    20.1671 </r>
       <r>     8.9083     2.5413    20.3510 </r>
       <r>     8.9806     2.4718    20.5299 </r>
       <r>     9.0530     2.4441    20.7067 </r>
       <r>     9.1254     2.5109    20.8884 </r>
       <r>     9.1977     2.6287    21.0787 </r>
       <r>     9.2701     2.7142    21.2751 </r>
       <r>     9.3425     2.7323    21.4728 </r>
       <r>     9.4148     2.7261    21.6701 </r>
       <r>     9.4872     2.7438    21.8687 </r>
       <r>     9.5596     2.7886    22.0705 </r>
       <r>     9.6319     2.8433    22.2763 </r>
       <r>     9.7043     2.8825    22.4849 </r>
       <r>     9.7767     2.8847    22.6936 </r>
       <r>     9.8491     2.8627    22.9008 </r>
       <r>     9.9214     2.8399    23.1063 </r>
       <r>     9.9938     2.8129    23.3099 </r>
       <r>    10.0662     2.7826    23.5113 </r>
       <r>    10.1385     2.7664    23.7115 </r>
       <r>    10.2109     2.7376    23.9096 </r>
       <r>    10.2833     2.6273    24.0997 </r>
       <r>    10.3556     2.4603    24.2778 </r>
       <r>    10.4280     2.3954    24.4511 </r>
       <r>    10.5004     2.5111    24.6328 </r>
       <r>    10.5727     2.6459    24.8243 </r>
       <r>    10.6451     2.5883    25.0116 </r>
       <r>    10.7175     2.3467    25.1815 </r>
       <r>    10.7898     2.1143    25.3345 </r>
       <r>    10.8622     2.0209    25.4807 </r>
       <r>    10.9346     2.0123    25.6264 </r>
       <r>    11.0070     1.9805    25.7697 </r>
       <r>    11.0793     1.9263    25.9091 </r>
       <r>    11.1517     1.9083    26.0472 </r>
       <r>    11.2241     1.9110    26.1855 </r>
       <r>    11.2964     1.8874    26.3221 </r>
       <r>    11.3688     1.8435    26.4555 </r>
       <r>    11.4412     1.7774    26.5841 </r>
       <r>    11.5135     1.6498    26.7035 </r>
       <r>    11.5859     1.4871    26.8111 </r>
       <r>    11.6583     1.3827    26.9112 </r>
       <r>    11.7306     1.3541    27.0092 </r>
       <r>    11.8030     1.3244    27.1050 </r>
       <r>    11.8754     1.2477    27.1953 </r>
       <r>    11.9477     1.1476    27.2784 </r>
       <r>    12.0201     1.0471    27.3542 </r>
       <r>    12.0925     0.9303    27.4215 </r>
       <r>    12.1649     0.7736    27.4775 </r>
       <r>    12.2372     0.5960    27.5206 </r>
       <r>    12.3096     0.4636    27.5542 </r>
       <r>    12.3820     0.4310    27.5853 </r>
       <r>    12.4543     0.4939    27.6211 </r>
       <r>    12.5267     0.5958    27.6642 </r>
       <r>    12.5991     0.6594    27.7119 </r>
       <r>    12.6714     0.6288    27.7574 </r>
       <r>    12.7438     0.5107    27.7944 </r>
       <r>    12.8162     0.3734    27.8214 </r>
       <r>    12.8885     0.2904    27.8424 </r>
       <r>    12.9609     0.2789    27.8626 </r>
       <r>    13.0333     0.2974    27.8841 </r>
       <r>    13.1056     0.2992    27.9058 </r>
       <r>    13.1780     0.2706    27.9254 </r>
       <r>    13.2504     0.2207    27.9413 </r>
       <r>    13.3228     0.1672    27.9534 </r>
       <r>    13.3951     0.1313    27.9629 </r>
       <r>    13.4675     0.1208    27.9717 </r>
       <r>    13.5399     0.1204    27.9804 </r>
       <r>    13.6122     0.1106    27.9884 </r>
       <r>    13.6846     0.0863    27.9946 </r>
       <r>    13.7570     0.0541    27.9985 </r>
       <r>    13.8293     0.0241    28.0003 </r>
       <r>    13.9017     0.0046    28.0006 </r>
       <r>    13.9741    -0.0030    28.0004 </r>
       <r>    14.0464    -0.0033    28.0002 </r>
       <r>    14.1188    -0.0017    28.0001 </r>
       <r>    14.1912    -0.0006    28.0000 </r>
       <r>    14.2635    -0.0001    28.0000 </r>
       <r>    14.3359    -0.0000    28.0000 </r>
       <r>    14.4083    -0.0000    28.0000 </r>
       <r>    14.4807    -0.0000    28.0000 </r>
       <r>    14.5530    -0.0000    28.0000 </r>
       <r>    14.6254    -0.0000    28.0000 </r>
       <r>    14.6978    -0.0000    28.0000 </r>
       <r>    14.7701    -0.0000    28.0000 </r>
       <r>    14.8425    -0.0000    28.0000 </r>
       <r>    14.9149    -0.0000    28.0000 </r>
       <r>    14.9872    -0.0000    28.0000 </r>
       <r>    15.0596     0.0000    28.0000 </r>
       <r>    15.1320     0.0000    28.0000 </r>
       <r>    15.2043     0.0000    28.0000 </r>
       <r>    15.2767     0.0000    28.0000 </r>
       <r>    15.3491     0.0000    28.0000 </r>
       <r>    15.4215     0.0000    28.0000 </r>
       <r>    15.4938     0.0000    28.0000 </r>
       <r>    15.5662     0.0000    28.0000 </r>
       <r>    15.6386     0.0000    28.0000 </r>
       <r>    15.7109     0.0000    28.0000 </r>
      </set>
     </set>
    </array>
   </total>
  </dos>
 </calculation>
 <structure name="finalpos" >
  <crystal>
   <varray name="basis" >
    <v>       4.46386326       0.00000000       0.00000000 </v>
    <v>      -0.00000000       4.46386326       0.00000000 </v>
    <v>       0.00000000       0.00000000       4.46386326 </v>
   </varray>
   <i name="volume">     88.94727521 </i>
   <varray name="rec_basis" >
    <v>       0.22402120       0.00000000      -0.00000000 </v>
    <v>       0.00000000       0.22402120       0.00000000 </v>
    <v>      -0.00000000      -0.00000000       0.22402120 </v>
   </varray>
  </crystal>
  <varray name="positions" >
   <v>       0.00000000       0.00000000       0.00000000 </v>
   <v>       0.00000000       0.50000000       0.50000000 </v>
   <v>       0.50000000       0.00000000       0.50000000 </v>
   <v>       0.50000000       0.50000000       0.00000000 </v>
  </varray>
 </structure>
</modeling>
