
4 atoms
1 atom types
   0.0000000000    4.4616597572 xlo xhi
   0.0000000000    4.4616597572 ylo yhi
   0.0000000000    4.4616597572 zlo zhi
  -0.0000000000   -0.0000000000   -0.0000000000 xy xz yz

Atoms # atomic

     1      1    0.0000000000    0.0000000000    0.0000000000
     2      1    0.0000000000    2.2308298787    2.2308298787
     3      1    2.2308298787    2.2308298787    0.0000000000
     4      1    2.2308298787    0.0000000000    2.2308298787
