ITEM: TIMESTEP
0
ITEM: NUMBER OF ATOMS
4
ITEM: BOX BOUNDS xy xz yz pp pp pp
0.0000000000000000e+00 4.4616597571999996e+00 -0.0000000000000000e+00
0.0000000000000000e+00 4.4616597571999996e+00 -0.0000000000000000e+00
0.0000000000000000e+00 4.4616597571999996e+00 -0.0000000000000000e+00
ITEM: ATOMS id type xs ys zs fx fy fz
1 1 0 0 0 9.23698e-11 9.23706e-11 9.23695e-11
4 1 0.5 0 0.5 -9.23699e-11 9.23706e-11 -9.23695e-11
3 1 0.5 0.5 0 -9.23698e-11 -9.23706e-11 9.23696e-11
2 1 0 0.5 0.5 9.23698e-11 -9.23706e-11 -9.23696e-11
ITEM: TIMESTEP
1
ITEM: NUMBER OF ATOMS
4
ITEM: BOX BOUNDS xy xz yz pp pp pp
0.0000000000000000e+00 4.4616597571999996e+00 -0.0000000000000000e+00
0.0000000000000000e+00 4.4616597571999996e+00 -0.0000000000000000e+00
0.0000000000000000e+00 4.4616597571999996e+00 -0.0000000000000000e+00
ITEM: ATOMS id type xs ys zs fx fy fz
1 1 1.12066e-11 1.12067e-11 1.12066e-11 1.11022e-16 -1.30088e-15 4.93313e-18
4 1 0.5 1.12067e-11 0.5 -6.245e-17 -1.32576e-15 -5.29362e-17
3 1 0.5 0.5 1.12066e-11 -9.02056e-17 1.35807e-15 -5.62159e-17
2 1 1.12066e-11 0.5 0.5 1.66533e-16 1.26502e-15 8.03665e-17
