 running   14 mpi-ranks, with    2 threads/rank, on    1 nodes
 distrk:  each k-point on   14 cores,    1 groups
 distr:  one band on    1 cores,   14 groups
 vasp.6.4.2 20Jul23 (build Apr 22 2024 22:35:45) complex                         
 POSCAR found type information on POSCAR Al
 POSCAR found :  1 types and       4 ions
 scaLAPACK will be used
 -----------------------------------------------------------------------------
|                                                                             |
|               ----> ADVICE to this user running VASP <----                  |
|                                                                             |
|     You have a (more or less) 'small supercell' and for smaller cells       |
|     it is recommended to use the reciprocal-space projection scheme!        |
|     The real-space optimization is not efficient for small cells and it     |
|     is also less accurate ...                                               |
|     Therefore, set LREAL=.FALSE. in the INCAR file.                         |
|                                                                             |
 -----------------------------------------------------------------------------

 LDA part: xc-table for Pade appr. of Perdew
 POSCAR, INCAR and KPOINTS ok, starting setup
 FFT: planning ... GRIDC
 FFT: planning ... GRID_SOFT
 FFT: planning ... GRID
 WAVECAR not read
 entering main loop
       N       E                     dE             d eps       ncg     rms          rms(c)
DAV:   1    -0.192796751042E+01   -0.19280E+01   -0.39027E+03  6230   0.526E+02
DAV:   2    -0.149639608541E+02   -0.13036E+02   -0.12709E+02  9086   0.493E+01
DAV:   3    -0.150356733348E+02   -0.71712E-01   -0.71629E-01  8190   0.494E+00
DAV:   4    -0.150358503743E+02   -0.17704E-03   -0.17704E-03 10136   0.232E-01
DAV:   5    -0.150358504622E+02   -0.87880E-07   -0.87680E-07  8232   0.415E-03    0.279E+00
RMM:   6    -0.149815489350E+02    0.54302E-01   -0.45769E-03  6160   0.392E-01    0.164E+00
RMM:   7    -0.149418803788E+02    0.39669E-01   -0.14239E-02  6160   0.661E-01    0.231E-01
RMM:   8    -0.149418497411E+02    0.30638E-04   -0.62544E-04  6160   0.165E-01    0.280E-02
RMM:   9    -0.149418556468E+02   -0.59057E-05   -0.99812E-05  6160   0.709E-02    0.253E-02
RMM:  10    -0.149418560412E+02   -0.39438E-06   -0.21241E-05  6160   0.316E-02    0.292E-02
RMM:  11    -0.149418523146E+02    0.37266E-05   -0.37780E-06  5948   0.122E-02    0.818E-03
RMM:  12    -0.149418520000E+02    0.31453E-06   -0.99306E-07  4491   0.736E-03
   1 F= -.14941852E+02 E0= -.14942449E+02  d E =-.149419E+02
 curvature:   0.00 expect dE= 0.000E+00 dE for cont linesearch  0.000E+00
 trial: gam= 0.00000 g(F)=  0.105E-62 g(S)=  0.392E-32 ort = 0.000E+00 (trialstep = 0.100E+01)
 search vector abs. value=  0.100E-09
 reached required accuracy - stopping structural energy minimisation
