 vasp.6.4.2 20Jul23 (build Apr 22 2024 22:35:45) complex                         
 executed on             LinuxGNU date 2024.05.26  15:48:08
 running   14 mpi-ranks, with    2 threads/rank, on    1 nodes
 distrk:  each k-point on   14 cores,    1 groups
 distr:  one band on NCORE=   1 cores,   14 groups


--------------------------------------------------------------------------------------------------------


 INCAR:
   ALGO = Fast
   EDIFF = 1e-06
   ENCUT = 400
   IBRION = 2
   ISIF = 4
   ISMEAR = 1
   KSPACING = 0.08
   LCHARG = False
   LREAL = Auto
   LWAVE = False
   NELM = 60
   NELMIN = 4
   NSW = 100
   PREC = Accurate
   SIGMA = 0.2
   SYSTEM = Al fcc relaxation

 POTCAR:    PAW_PBE Al 04Jan2001                  
 POTCAR:    PAW_PBE Al 04Jan2001                  
   SHA256 =  17880443556af62b473fe41b62a467bd001ad55d2cabe504a3f22e34d4e9db96 Al/POTCAR             
   COPYR  = (c) Copyright 04Jan2001 Georg Kresse                                                    
   COPYR  = This file is part of the software VASP. Any use, copying, and all other rights are regul
   COPYR  = If you do not have a valid VASP license, you may not use, copy or distribute this file. 
   VRHFIN =Al: s2p1                                                                                 
   LEXCH  = PE                                                                                      
   EATOM  =    53.5387 eV,    3.9350 Ry                                                             
                                                                                                    
   TITEL  = PAW_PBE Al 04Jan2001                                                                    
   LULTRA =        F    use ultrasoft PP ?                                                          
   IUNSCR =        1    unscreen: 0-lin 1-nonlin 2-no                                               
   RPACOR =    1.500    partial core radius                                                         
   POMASS =   26.981; ZVAL   =    3.000    mass and valenz                                          
   RCORE  =    1.900    outmost cutoff radius                                                       
   RWIGS  =    2.650; RWIGS  =    1.402    wigner-seitz radius (au A)                               
   ENMAX  =  240.300; ENMIN  =  180.225 eV                                                          
   ICORE  =        2    local potential                                                             
   LCOR   =        T    correct aug charges                                                         
   LPAW   =        T    paw PP                                                                      
   EAUG   =  291.052                                                                                
   DEXC   =    0.000                                                                                
   RMAX   =    1.939    core radius for proj-oper                                                   
   RAUG   =    1.300    factor for augmentation sphere                                              
   RDEP   =    1.966    radius for radial grids                                                     
   RDEPT  =    1.856    core radius for aug-charge                                                  
                                                                                                    
   Atomic configuration                                                                             
    6 entries                                                                                       
     n  l   j            E        occ.                                                              
     1  0  0.50     -1511.1048   2.0000                                                             
     2  0  0.50      -108.1629   2.0000                                                             
     2  1  1.50       -69.6402   6.0000                                                             
     3  0  0.50        -7.7528   2.0000                                                             
     3  1  1.50        -2.7121   1.0000                                                             
     3  2  2.50        -2.7212   0.0000                                                             
   Description                                                                                      
     l       E           TYP  RCUT    TYP  RCUT                                                     
     0     -7.7528455     23  1.900                                                                 
     0     -3.3096929     23  1.900                                                                 
     1     -2.7120682     23  1.900                                                                 
     1     13.6058260     23  1.900                                                                 
     2     -2.7211652      7  1.900                                                                 
  local pseudopotential read in
  partial core-charges read in
  partial kinetic energy density read in
  atomic valenz-charges read in
  non local Contribution for L=           0  read in
    real space projection operators read in
  non local Contribution for L=           0  read in
    real space projection operators read in
  non local Contribution for L=           1  read in
    real space projection operators read in
  non local Contribution for L=           1  read in
    real space projection operators read in
    PAW grid and wavefunctions read in

   number of l-projection  operators is LMAX  =           4
   number of lm-projection operators is LMMAX =           8

 -----------------------------------------------------------------------------
|                                                                             |
|               ----> ADVICE to this user running VASP <----                  |
|                                                                             |
|     You have a (more or less) 'small supercell' and for smaller cells       |
|     it is recommended to use the reciprocal-space projection scheme!        |
|     The real-space optimization is not efficient for small cells and it     |
|     is also less accurate ...                                               |
|     Therefore, set LREAL=.FALSE. in the INCAR file.                         |
|                                                                             |
 -----------------------------------------------------------------------------

 Optimization of the real space projectors (new method)

 maximal supplied QI-value         = 19.84
 optimisation between [QCUT,QGAM] = [ 10.12, 20.44] = [ 28.68,116.96] Ry 
 Optimized for a Real-space Cutoff    1.38 Angstroem

   l    n(q)    QCUT    max X(q) W(low)/X(q) W(high)/X(q)  e(spline) 
   0      8    10.119   176.870    0.39E-04    0.93E-04    0.54E-07
   0      8    10.119   105.762    0.37E-04    0.91E-04    0.53E-07
   1      8    10.119    55.370    0.18E-03    0.13E-03    0.19E-06
   1      8    10.119    20.208    0.17E-03    0.12E-03    0.18E-06
  PAW_PBE Al 04Jan2001                  :
 energy of atom  1       EATOM=  -53.5387
 kinetic energy error for atom=    0.0005 (will be added to EATOM!!)


 POSCAR: Al4
  positions in direct lattice
  velocities in cartesian coordinates
 exchange correlation table for  LEXCH =        8
   RHO(1)=    0.500       N(1)  =     2000
   RHO(2)=  100.500       N(2)  =     4000



--------------------------------------------------------------------------------------------------------


 ion  position               nearest neighbor table
   1  0.000  0.000  0.000-   2 2.81   3 2.81   4 2.81   2 2.81   3 2.81   2 2.81   4 2.81   2 2.81
                             3 2.81   4 2.81   3 2.81   4 2.81
   2  0.000  0.500  0.500-   1 2.81   3 2.81   4 2.81   1 2.81   4 2.81   1 2.81   3 2.81   1 2.81
                             3 2.81   4 2.81   4 2.81   3 2.81
   3  0.500  0.000  0.500-   1 2.81   2 2.81   4 2.81   1 2.81   4 2.81   2 2.81   4 2.81   4 2.81
                             1 2.81   2 2.81   1 2.81   2 2.81
   4  0.500  0.500  0.000-   1 2.81   2 2.81   3 2.81   2 2.81   3 2.81   1 2.81   3 2.81   3 2.81
                             1 2.81   2 2.81   2 2.81   1 2.81

  LATTYP: Found a simple cubic cell.
 ALAT       =     3.9704600303
  
  Lattice vectors:
  
 A1 = (   3.9704600303,   0.0000000000,   0.0000000000)
 A2 = (  -0.0000000000,   3.9704600303,   0.0000000000)
 A3 = (   0.0000000000,   0.0000000000,   3.9704600303)


Analysis of symmetry for initial positions (statically):
=====================================================================
 Subroutine PRICEL returns following result:
 
  LATTYP: Found a face centered cubic cell.
 ALAT       =     3.9704600303
  
  Lattice vectors:
  
 A1 = (   1.9852300152,  -1.9852300152,   0.0000000000)
 A2 = (   1.9852300152,   0.0000000000,   1.9852300152)
 A3 = (   0.0000000000,  -1.9852300152,   1.9852300152)
 
   4 primitive cells build up your supercell.
 

 Routine SETGRP: Setting up the symmetry group for a 
 simple cubic supercell.


 Subroutine GETGRP returns: Found 48 space group operations
 (whereof 48 operations were pure point group operations)
 out of a pool of 48 trial point group operations.


The static configuration has the point symmetry O_h .


Analysis of symmetry for dynamics (positions and initial velocities):
=====================================================================
 Subroutine PRICEL returns following result:
 
  LATTYP: Found a face centered cubic cell.
 ALAT       =     3.9704600303
  
  Lattice vectors:
  
 A1 = (   1.9852300152,  -1.9852300152,   0.0000000000)
 A2 = (   1.9852300152,   0.0000000000,   1.9852300152)
 A3 = (   0.0000000000,  -1.9852300152,   1.9852300152)
 
   4 primitive cells build up your supercell.
 

 Routine SETGRP: Setting up the symmetry group for a 
 simple cubic supercell.


 Subroutine GETGRP returns: Found 48 space group operations
 (whereof 48 operations were pure point group operations)
 out of a pool of 48 trial point group operations.


The dynamic configuration has the point symmetry O_h .


 Subroutine INISYM returns: Found 48 space group operations
 (whereof 48 operations are pure point group operations),
 and found     4 'primitive' translations


----------------------------------------------------------------------------------------

                                     Primitive cell                                     

  volume of cell :      15.6481

  direct lattice vectors                    reciprocal lattice vectors
     1.985230015 -1.985230015  0.000000000     0.251859984 -0.251859984 -0.251859984
     1.985230015  0.000000000  1.985230015     0.251859984  0.251859984  0.251859984
     0.000000000 -1.985230015  1.985230015    -0.251859984 -0.251859984  0.251859984

  length of vectors
     2.807539212  2.807539212  2.807539212     0.436234289  0.436234289  0.436234289

  position of ions in fractional coordinates (direct lattice)
     0.000000000  0.000000000  0.000000000

  ion indices of the primitive-cell ions
   primitive index   ion index
                 1           1

----------------------------------------------------------------------------------------



 KPOINTS: Automatic kpoint scheme                 

Automatic generation of k-mesh.
 Grid dimensions read from file:
 generate k-points for:   20   20   20

 Generating k-lattice:

  Cartesian coordinates                     Fractional coordinates (reciprocal lattice)
     0.012592999  0.000000000 -0.000000000     0.050000000 -0.000000000  0.000000000
     0.000000000  0.012592999  0.000000000     0.000000000  0.050000000  0.000000000
    -0.000000000 -0.000000000  0.012592999     0.000000000  0.000000000  0.050000000

  Length of vectors
     0.012592999  0.012592999  0.012592999

  Shift w.r.t. Gamma in fractional coordinates (k-lattice)
     0.500000000  0.500000000  0.500000000

 
 Subroutine IBZKPT returns following result:
 ===========================================
 
 Found    220 irreducible k-points:
 
 Following reciprocal coordinates:
            Coordinates               Weight
  0.025000  0.025000  0.025000      8.000000
  0.075000  0.025000  0.025000     24.000000
  0.125000  0.025000  0.025000     24.000000
  0.175000  0.025000  0.025000     24.000000
  0.225000  0.025000  0.025000     24.000000
  0.275000  0.025000  0.025000     24.000000
  0.325000  0.025000  0.025000     24.000000
  0.375000  0.025000  0.025000     24.000000
  0.425000  0.025000  0.025000     24.000000
  0.475000  0.025000  0.025000     24.000000
  0.075000  0.075000  0.025000     24.000000
  0.125000  0.075000  0.025000     48.000000
  0.175000  0.075000  0.025000     48.000000
  0.225000  0.075000  0.025000     48.000000
  0.275000  0.075000  0.025000     48.000000
  0.325000  0.075000  0.025000     48.000000
  0.375000  0.075000  0.025000     48.000000
  0.425000  0.075000  0.025000     48.000000
  0.475000  0.075000  0.025000     48.000000
  0.125000  0.125000  0.025000     24.000000
  0.175000  0.125000  0.025000     48.000000
  0.225000  0.125000  0.025000     48.000000
  0.275000  0.125000  0.025000     48.000000
  0.325000  0.125000  0.025000     48.000000
  0.375000  0.125000  0.025000     48.000000
  0.425000  0.125000  0.025000     48.000000
  0.475000  0.125000  0.025000     48.000000
  0.175000  0.175000  0.025000     24.000000
  0.225000  0.175000  0.025000     48.000000
  0.275000  0.175000  0.025000     48.000000
  0.325000  0.175000  0.025000     48.000000
  0.375000  0.175000  0.025000     48.000000
  0.425000  0.175000  0.025000     48.000000
  0.475000  0.175000  0.025000     48.000000
  0.225000  0.225000  0.025000     24.000000
  0.275000  0.225000  0.025000     48.000000
  0.325000  0.225000  0.025000     48.000000
  0.375000  0.225000  0.025000     48.000000
  0.425000  0.225000  0.025000     48.000000
  0.475000  0.225000  0.025000     48.000000
  0.275000  0.275000  0.025000     24.000000
  0.325000  0.275000  0.025000     48.000000
  0.375000  0.275000  0.025000     48.000000
  0.425000  0.275000  0.025000     48.000000
  0.475000  0.275000  0.025000     48.000000
  0.325000  0.325000  0.025000     24.000000
  0.375000  0.325000  0.025000     48.000000
  0.425000  0.325000  0.025000     48.000000
  0.475000  0.325000  0.025000     48.000000
  0.375000  0.375000  0.025000     24.000000
  0.425000  0.375000  0.025000     48.000000
  0.475000  0.375000  0.025000     48.000000
  0.425000  0.425000  0.025000     24.000000
  0.475000  0.425000  0.025000     48.000000
  0.475000  0.475000  0.025000     24.000000
  0.075000  0.075000  0.075000      8.000000
  0.125000  0.075000  0.075000     24.000000
  0.175000  0.075000  0.075000     24.000000
  0.225000  0.075000  0.075000     24.000000
  0.275000  0.075000  0.075000     24.000000
  0.325000  0.075000  0.075000     24.000000
  0.375000  0.075000  0.075000     24.000000
  0.425000  0.075000  0.075000     24.000000
  0.475000  0.075000  0.075000     24.000000
  0.125000  0.125000  0.075000     24.000000
  0.175000  0.125000  0.075000     48.000000
  0.225000  0.125000  0.075000     48.000000
  0.275000  0.125000  0.075000     48.000000
  0.325000  0.125000  0.075000     48.000000
  0.375000  0.125000  0.075000     48.000000
  0.425000  0.125000  0.075000     48.000000
  0.475000  0.125000  0.075000     48.000000
  0.175000  0.175000  0.075000     24.000000
  0.225000  0.175000  0.075000     48.000000
  0.275000  0.175000  0.075000     48.000000
  0.325000  0.175000  0.075000     48.000000
  0.375000  0.175000  0.075000     48.000000
  0.425000  0.175000  0.075000     48.000000
  0.475000  0.175000  0.075000     48.000000
  0.225000  0.225000  0.075000     24.000000
  0.275000  0.225000  0.075000     48.000000
  0.325000  0.225000  0.075000     48.000000
  0.375000  0.225000  0.075000     48.000000
  0.425000  0.225000  0.075000     48.000000
  0.475000  0.225000  0.075000     48.000000
  0.275000  0.275000  0.075000     24.000000
  0.325000  0.275000  0.075000     48.000000
  0.375000  0.275000  0.075000     48.000000
  0.425000  0.275000  0.075000     48.000000
  0.475000  0.275000  0.075000     48.000000
  0.325000  0.325000  0.075000     24.000000
  0.375000  0.325000  0.075000     48.000000
  0.425000  0.325000  0.075000     48.000000
  0.475000  0.325000  0.075000     48.000000
  0.375000  0.375000  0.075000     24.000000
  0.425000  0.375000  0.075000     48.000000
  0.475000  0.375000  0.075000     48.000000
  0.425000  0.425000  0.075000     24.000000
  0.475000  0.425000  0.075000     48.000000
  0.475000  0.475000  0.075000     24.000000
  0.125000  0.125000  0.125000      8.000000
  0.175000  0.125000  0.125000     24.000000
  0.225000  0.125000  0.125000     24.000000
  0.275000  0.125000  0.125000     24.000000
  0.325000  0.125000  0.125000     24.000000
  0.375000  0.125000  0.125000     24.000000
  0.425000  0.125000  0.125000     24.000000
  0.475000  0.125000  0.125000     24.000000
  0.175000  0.175000  0.125000     24.000000
  0.225000  0.175000  0.125000     48.000000
  0.275000  0.175000  0.125000     48.000000
  0.325000  0.175000  0.125000     48.000000
  0.375000  0.175000  0.125000     48.000000
  0.425000  0.175000  0.125000     48.000000
  0.475000  0.175000  0.125000     48.000000
  0.225000  0.225000  0.125000     24.000000
  0.275000  0.225000  0.125000     48.000000
  0.325000  0.225000  0.125000     48.000000
  0.375000  0.225000  0.125000     48.000000
  0.425000  0.225000  0.125000     48.000000
  0.475000  0.225000  0.125000     48.000000
  0.275000  0.275000  0.125000     24.000000
  0.325000  0.275000  0.125000     48.000000
  0.375000  0.275000  0.125000     48.000000
  0.425000  0.275000  0.125000     48.000000
  0.475000  0.275000  0.125000     48.000000
  0.325000  0.325000  0.125000     24.000000
  0.375000  0.325000  0.125000     48.000000
  0.425000  0.325000  0.125000     48.000000
  0.475000  0.325000  0.125000     48.000000
  0.375000  0.375000  0.125000     24.000000
  0.425000  0.375000  0.125000     48.000000
  0.475000  0.375000  0.125000     48.000000
  0.425000  0.425000  0.125000     24.000000
  0.475000  0.425000  0.125000     48.000000
  0.475000  0.475000  0.125000     24.000000
  0.175000  0.175000  0.175000      8.000000
  0.225000  0.175000  0.175000     24.000000
  0.275000  0.175000  0.175000     24.000000
  0.325000  0.175000  0.175000     24.000000
  0.375000  0.175000  0.175000     24.000000
  0.425000  0.175000  0.175000     24.000000
  0.475000  0.175000  0.175000     24.000000
  0.225000  0.225000  0.175000     24.000000
  0.275000  0.225000  0.175000     48.000000
  0.325000  0.225000  0.175000     48.000000
  0.375000  0.225000  0.175000     48.000000
  0.425000  0.225000  0.175000     48.000000
  0.475000  0.225000  0.175000     48.000000
  0.275000  0.275000  0.175000     24.000000
  0.325000  0.275000  0.175000     48.000000
  0.375000  0.275000  0.175000     48.000000
  0.425000  0.275000  0.175000     48.000000
  0.475000  0.275000  0.175000     48.000000
  0.325000  0.325000  0.175000     24.000000
  0.375000  0.325000  0.175000     48.000000
  0.425000  0.325000  0.175000     48.000000
  0.475000  0.325000  0.175000     48.000000
  0.375000  0.375000  0.175000     24.000000
  0.425000  0.375000  0.175000     48.000000
  0.475000  0.375000  0.175000     48.000000
  0.425000  0.425000  0.175000     24.000000
  0.475000  0.425000  0.175000     48.000000
  0.475000  0.475000  0.175000     24.000000
  0.225000  0.225000  0.225000      8.000000
  0.275000  0.225000  0.225000     24.000000
  0.325000  0.225000  0.225000     24.000000
  0.375000  0.225000  0.225000     24.000000
  0.425000  0.225000  0.225000     24.000000
  0.475000  0.225000  0.225000     24.000000
  0.275000  0.275000  0.225000     24.000000
  0.325000  0.275000  0.225000     48.000000
  0.375000  0.275000  0.225000     48.000000
  0.425000  0.275000  0.225000     48.000000
  0.475000  0.275000  0.225000     48.000000
  0.325000  0.325000  0.225000     24.000000
  0.375000  0.325000  0.225000     48.000000
  0.425000  0.325000  0.225000     48.000000
  0.475000  0.325000  0.225000     48.000000
  0.375000  0.375000  0.225000     24.000000
  0.425000  0.375000  0.225000     48.000000
  0.475000  0.375000  0.225000     48.000000
  0.425000  0.425000  0.225000     24.000000
  0.475000  0.425000  0.225000     48.000000
  0.475000  0.475000  0.225000     24.000000
  0.275000  0.275000  0.275000      8.000000
  0.325000  0.275000  0.275000     24.000000
  0.375000  0.275000  0.275000     24.000000
  0.425000  0.275000  0.275000     24.000000
  0.475000  0.275000  0.275000     24.000000
  0.325000  0.325000  0.275000     24.000000
  0.375000  0.325000  0.275000     48.000000
  0.425000  0.325000  0.275000     48.000000
  0.475000  0.325000  0.275000     48.000000
  0.375000  0.375000  0.275000     24.000000
  0.425000  0.375000  0.275000     48.000000
  0.475000  0.375000  0.275000     48.000000
  0.425000  0.425000  0.275000     24.000000
  0.475000  0.425000  0.275000     48.000000
  0.475000  0.475000  0.275000     24.000000
  0.325000  0.325000  0.325000      8.000000
  0.375000  0.325000  0.325000     24.000000
  0.425000  0.325000  0.325000     24.000000
  0.475000  0.325000  0.325000     24.000000
  0.375000  0.375000  0.325000     24.000000
  0.425000  0.375000  0.325000     48.000000
  0.475000  0.375000  0.325000     48.000000
  0.425000  0.425000  0.325000     24.000000
  0.475000  0.425000  0.325000     48.000000
  0.475000  0.475000  0.325000     24.000000
  0.375000  0.375000  0.375000      8.000000
  0.425000  0.375000  0.375000     24.000000
  0.475000  0.375000  0.375000     24.000000
  0.425000  0.425000  0.375000     24.000000
  0.475000  0.425000  0.375000     48.000000
  0.475000  0.475000  0.375000     24.000000
  0.425000  0.425000  0.425000      8.000000
  0.475000  0.425000  0.425000     24.000000
  0.475000  0.475000  0.425000     24.000000
  0.475000  0.475000  0.475000      8.000000
 
 Following cartesian coordinates:
            Coordinates               Weight
  0.006190  0.006190  0.006190      8.000000
  0.018569  0.006190  0.006190     24.000000
  0.030949  0.006190  0.006190     24.000000
  0.043328  0.006190  0.006190     24.000000
  0.055708  0.006190  0.006190     24.000000
  0.068087  0.006190  0.006190     24.000000
  0.080467  0.006190  0.006190     24.000000
  0.092846  0.006190  0.006190     24.000000
  0.105226  0.006190  0.006190     24.000000
  0.117605  0.006190  0.006190     24.000000
  0.018569  0.018569  0.006190     24.000000
  0.030949  0.018569  0.006190     48.000000
  0.043328  0.018569  0.006190     48.000000
  0.055708  0.018569  0.006190     48.000000
  0.068087  0.018569  0.006190     48.000000
  0.080467  0.018569  0.006190     48.000000
  0.092846  0.018569  0.006190     48.000000
  0.105226  0.018569  0.006190     48.000000
  0.117605  0.018569  0.006190     48.000000
  0.030949  0.030949  0.006190     24.000000
  0.043328  0.030949  0.006190     48.000000
  0.055708  0.030949  0.006190     48.000000
  0.068087  0.030949  0.006190     48.000000
  0.080467  0.030949  0.006190     48.000000
  0.092846  0.030949  0.006190     48.000000
  0.105226  0.030949  0.006190     48.000000
  0.117605  0.030949  0.006190     48.000000
  0.043328  0.043328  0.006190     24.000000
  0.055708  0.043328  0.006190     48.000000
  0.068087  0.043328  0.006190     48.000000
  0.080467  0.043328  0.006190     48.000000
  0.092846  0.043328  0.006190     48.000000
  0.105226  0.043328  0.006190     48.000000
  0.117605  0.043328  0.006190     48.000000
  0.055708  0.055708  0.006190     24.000000
  0.068087  0.055708  0.006190     48.000000
  0.080467  0.055708  0.006190     48.000000
  0.092846  0.055708  0.006190     48.000000
  0.105226  0.055708  0.006190     48.000000
  0.117605  0.055708  0.006190     48.000000
  0.068087  0.068087  0.006190     24.000000
  0.080467  0.068087  0.006190     48.000000
  0.092846  0.068087  0.006190     48.000000
  0.105226  0.068087  0.006190     48.000000
  0.117605  0.068087  0.006190     48.000000
  0.080467  0.080467  0.006190     24.000000
  0.092846  0.080467  0.006190     48.000000
  0.105226  0.080467  0.006190     48.000000
  0.117605  0.080467  0.006190     48.000000
  0.092846  0.092846  0.006190     24.000000
  0.105226  0.092846  0.006190     48.000000
  0.117605  0.092846  0.006190     48.000000
  0.105226  0.105226  0.006190     24.000000
  0.117605  0.105226  0.006190     48.000000
  0.117605  0.117605  0.006190     24.000000
  0.018569  0.018569  0.018569      8.000000
  0.030949  0.018569  0.018569     24.000000
  0.043328  0.018569  0.018569     24.000000
  0.055708  0.018569  0.018569     24.000000
  0.068087  0.018569  0.018569     24.000000
  0.080467  0.018569  0.018569     24.000000
  0.092846  0.018569  0.018569     24.000000
  0.105226  0.018569  0.018569     24.000000
  0.117605  0.018569  0.018569     24.000000
  0.030949  0.030949  0.018569     24.000000
  0.043328  0.030949  0.018569     48.000000
  0.055708  0.030949  0.018569     48.000000
  0.068087  0.030949  0.018569     48.000000
  0.080467  0.030949  0.018569     48.000000
  0.092846  0.030949  0.018569     48.000000
  0.105226  0.030949  0.018569     48.000000
  0.117605  0.030949  0.018569     48.000000
  0.043328  0.043328  0.018569     24.000000
  0.055708  0.043328  0.018569     48.000000
  0.068087  0.043328  0.018569     48.000000
  0.080467  0.043328  0.018569     48.000000
  0.092846  0.043328  0.018569     48.000000
  0.105226  0.043328  0.018569     48.000000
  0.117605  0.043328  0.018569     48.000000
  0.055708  0.055708  0.018569     24.000000
  0.068087  0.055708  0.018569     48.000000
  0.080467  0.055708  0.018569     48.000000
  0.092846  0.055708  0.018569     48.000000
  0.105226  0.055708  0.018569     48.000000
  0.117605  0.055708  0.018569     48.000000
  0.068087  0.068087  0.018569     24.000000
  0.080467  0.068087  0.018569     48.000000
  0.092846  0.068087  0.018569     48.000000
  0.105226  0.068087  0.018569     48.000000
  0.117605  0.068087  0.018569     48.000000
  0.080467  0.080467  0.018569     24.000000
  0.092846  0.080467  0.018569     48.000000
  0.105226  0.080467  0.018569     48.000000
  0.117605  0.080467  0.018569     48.000000
  0.092846  0.092846  0.018569     24.000000
  0.105226  0.092846  0.018569     48.000000
  0.117605  0.092846  0.018569     48.000000
  0.105226  0.105226  0.018569     24.000000
  0.117605  0.105226  0.018569     48.000000
  0.117605  0.117605  0.018569     24.000000
  0.030949  0.030949  0.030949      8.000000
  0.043328  0.030949  0.030949     24.000000
  0.055708  0.030949  0.030949     24.000000
  0.068087  0.030949  0.030949     24.000000
  0.080467  0.030949  0.030949     24.000000
  0.092846  0.030949  0.030949     24.000000
  0.105226  0.030949  0.030949     24.000000
  0.117605  0.030949  0.030949     24.000000
  0.043328  0.043328  0.030949     24.000000
  0.055708  0.043328  0.030949     48.000000
  0.068087  0.043328  0.030949     48.000000
  0.080467  0.043328  0.030949     48.000000
  0.092846  0.043328  0.030949     48.000000
  0.105226  0.043328  0.030949     48.000000
  0.117605  0.043328  0.030949     48.000000
  0.055708  0.055708  0.030949     24.000000
  0.068087  0.055708  0.030949     48.000000
  0.080467  0.055708  0.030949     48.000000
  0.092846  0.055708  0.030949     48.000000
  0.105226  0.055708  0.030949     48.000000
  0.117605  0.055708  0.030949     48.000000
  0.068087  0.068087  0.030949     24.000000
  0.080467  0.068087  0.030949     48.000000
  0.092846  0.068087  0.030949     48.000000
  0.105226  0.068087  0.030949     48.000000
  0.117605  0.068087  0.030949     48.000000
  0.080467  0.080467  0.030949     24.000000
  0.092846  0.080467  0.030949     48.000000
  0.105226  0.080467  0.030949     48.000000
  0.117605  0.080467  0.030949     48.000000
  0.092846  0.092846  0.030949     24.000000
  0.105226  0.092846  0.030949     48.000000
  0.117605  0.092846  0.030949     48.000000
  0.105226  0.105226  0.030949     24.000000
  0.117605  0.105226  0.030949     48.000000
  0.117605  0.117605  0.030949     24.000000
  0.043328  0.043328  0.043328      8.000000
  0.055708  0.043328  0.043328     24.000000
  0.068087  0.043328  0.043328     24.000000
  0.080467  0.043328  0.043328     24.000000
  0.092846  0.043328  0.043328     24.000000
  0.105226  0.043328  0.043328     24.000000
  0.117605  0.043328  0.043328     24.000000
  0.055708  0.055708  0.043328     24.000000
  0.068087  0.055708  0.043328     48.000000
  0.080467  0.055708  0.043328     48.000000
  0.092846  0.055708  0.043328     48.000000
  0.105226  0.055708  0.043328     48.000000
  0.117605  0.055708  0.043328     48.000000
  0.068087  0.068087  0.043328     24.000000
  0.080467  0.068087  0.043328     48.000000
  0.092846  0.068087  0.043328     48.000000
  0.105226  0.068087  0.043328     48.000000
  0.117605  0.068087  0.043328     48.000000
  0.080467  0.080467  0.043328     24.000000
  0.092846  0.080467  0.043328     48.000000
  0.105226  0.080467  0.043328     48.000000
  0.117605  0.080467  0.043328     48.000000
  0.092846  0.092846  0.043328     24.000000
  0.105226  0.092846  0.043328     48.000000
  0.117605  0.092846  0.043328     48.000000
  0.105226  0.105226  0.043328     24.000000
  0.117605  0.105226  0.043328     48.000000
  0.117605  0.117605  0.043328     24.000000
  0.055708  0.055708  0.055708      8.000000
  0.068087  0.055708  0.055708     24.000000
  0.080467  0.055708  0.055708     24.000000
  0.092846  0.055708  0.055708     24.000000
  0.105226  0.055708  0.055708     24.000000
  0.117605  0.055708  0.055708     24.000000
  0.068087  0.068087  0.055708     24.000000
  0.080467  0.068087  0.055708     48.000000
  0.092846  0.068087  0.055708     48.000000
  0.105226  0.068087  0.055708     48.000000
  0.117605  0.068087  0.055708     48.000000
  0.080467  0.080467  0.055708     24.000000
  0.092846  0.080467  0.055708     48.000000
  0.105226  0.080467  0.055708     48.000000
  0.117605  0.080467  0.055708     48.000000
  0.092846  0.092846  0.055708     24.000000
  0.105226  0.092846  0.055708     48.000000
  0.117605  0.092846  0.055708     48.000000
  0.105226  0.105226  0.055708     24.000000
  0.117605  0.105226  0.055708     48.000000
  0.117605  0.117605  0.055708     24.000000
  0.068087  0.068087  0.068087      8.000000
  0.080467  0.068087  0.068087     24.000000
  0.092846  0.068087  0.068087     24.000000
  0.105226  0.068087  0.068087     24.000000
  0.117605  0.068087  0.068087     24.000000
  0.080467  0.080467  0.068087     24.000000
  0.092846  0.080467  0.068087     48.000000
  0.105226  0.080467  0.068087     48.000000
  0.117605  0.080467  0.068087     48.000000
  0.092846  0.092846  0.068087     24.000000
  0.105226  0.092846  0.068087     48.000000
  0.117605  0.092846  0.068087     48.000000
  0.105226  0.105226  0.068087     24.000000
  0.117605  0.105226  0.068087     48.000000
  0.117605  0.117605  0.068087     24.000000
  0.080467  0.080467  0.080467      8.000000
  0.092846  0.080467  0.080467     24.000000
  0.105226  0.080467  0.080467     24.000000
  0.117605  0.080467  0.080467     24.000000
  0.092846  0.092846  0.080467     24.000000
  0.105226  0.092846  0.080467     48.000000
  0.117605  0.092846  0.080467     48.000000
  0.105226  0.105226  0.080467     24.000000
  0.117605  0.105226  0.080467     48.000000
  0.117605  0.117605  0.080467     24.000000
  0.092846  0.092846  0.092846      8.000000
  0.105226  0.092846  0.092846     24.000000
  0.117605  0.092846  0.092846     24.000000
  0.105226  0.105226  0.092846     24.000000
  0.117605  0.105226  0.092846     48.000000
  0.117605  0.117605  0.092846     24.000000
  0.105226  0.105226  0.105226      8.000000
  0.117605  0.105226  0.105226     24.000000
  0.117605  0.117605  0.105226     24.000000
  0.117605  0.117605  0.117605      8.000000
 


--------------------------------------------------------------------------------------------------------




 Dimension of arrays:
   k-points           NKPTS =    220   k-points in BZ     NKDIM =    220   number of bands    NBANDS=     14
   number of dos      NEDOS =    301   number of ions     NIONS =      4
   non local maximal  LDIM  =      4   non local SUM 2l+1 LMDIM =      8
   total plane-waves  NPLWV =  21952
   max r-space proj   IRMAX =   3915   max aug-charges    IRDMAX=  13848
   dimension x,y,z NGX =    28 NGY =   28 NGZ =   28
   dimension x,y,z NGXF=    56 NGYF=   56 NGZF=   56
   support grid    NGXF=    56 NGYF=   56 NGZF=   56
   ions per type =               4
   NGX,Y,Z   is equivalent  to a cutoff of  11.72, 11.72, 11.72 a.u.
   NGXF,Y,Z  is equivalent  to a cutoff of  23.45, 23.45, 23.45 a.u.

 SYSTEM =  Al fcc relaxation                       
 POSCAR =  Al4                                     

 Startparameter for this run:
   NWRITE =      2    write-flag & timer
   PREC   = accura    normal or accurate (medium, high low for compatibility)
   ISTART =      0    job   : 0-new  1-cont  2-samecut
   ICHARG =      2    charge: 1-file 2-atom 10-const
   ISPIN  =      1    spin polarized calculation?
   LNONCOLLINEAR =      F non collinear calculations
   LSORBIT =      F    spin-orbit coupling
   INIWAV =      1    electr: 0-lowe 1-rand  2-diag
   LASPH  =      F    aspherical Exc in radial PAW
 Electronic Relaxation 1
   ENCUT  =  400.0 eV  29.40 Ry    5.42 a.u.   6.47  6.47  6.47*2*pi/ulx,y,z
   ENINI  =  400.0     initial cutoff
   ENAUG  =  291.1 eV  augmentation charge cutoff
   NELM   =     60;   NELMIN=  4; NELMDL= -5     # of ELM steps 
   EDIFF  = 0.1E-05   stopping-criterion for ELM
   LREAL  =      T    real-space projection
   NLSPLINE    = F    spline interpolate recip. space projectors
   LCOMPAT=      F    compatible to vasp.4.4
   GGA_COMPAT  = T    GGA compatible to vasp.4.4-vasp.4.6
   LMAXPAW     = -100 max onsite density
   LMAXMIX     =    2 max onsite mixed and CHGCAR
   VOSKOWN=      0    Vosko Wilk Nusair interpolation
   ROPT   =   -0.00025
 Ionic relaxation
   EDIFFG = 0.1E-04   stopping-criterion for IOM
   NSW    =    100    number of steps for IOM
   NBLOCK =      1;   KBLOCK =    100    inner block; outer block 
   IBRION =      2    ionic relax: 0-MD 1-quasi-New 2-CG
   NFREE  =      1    steps in history (QN), initial steepest desc. (CG)
   ISIF   =      4    stress and relaxation
   IWAVPR =     11    prediction:  0-non 1-charg 2-wave 3-comb
   ISYM   =      2    0-nonsym 1-usesym 2-fastsym
   LCORR  =      T    Harris-Foulkes like correction to forces

   POTIM  = 0.5000    time-step for ionic-motion
   TEIN   =    0.0    initial temperature
   TEBEG  =    0.0;   TEEND  =   0.0 temperature during run
   SMASS  =  -3.00    Nose mass-parameter (am)
   estimated Nose-frequenzy (Omega)   =  0.10E-29 period in steps = 0.13E+47 mass=  -0.360E-27a.u.
   SCALEE = 1.0000    scale energy and forces
   NPACO  =    256;   APACO  = 10.0  distance and # of slots for P.C.
   PSTRESS=    0.0 pullay stress

  Mass of Ions in am
   POMASS =  26.98
  Ionic Valenz
   ZVAL   =   3.00
  Atomic Wigner-Seitz radii
   RWIGS  =  -1.00
  virtual crystal weights 
   VCA    =   1.00
   NELECT =      12.0000    total number of electrons
   NUPDOWN=      -1.0000    fix difference up-down

 DOS related values:
   EMIN   =  10.00;   EMAX   =-10.00  energy-range for DOS
   EFERMI =   0.00;   METHOD = LEGACY      
   ISMEAR =     1;   SIGMA  =   0.20  broadening in eV -4-tet -1-fermi 0-gaus

 Electronic relaxation 2 (details)
   IALGO  =     68    algorithm
   LDIAG  =      T    sub-space diagonalisation (order eigenvalues)
   LSUBROT=      F    optimize rotation matrix (better conditioning)
   TURBO    =      0    0=normal 1=particle mesh
   IRESTART =      0    0=no restart 2=restart with 2 vectors
   NREBOOT  =      0    no. of reboots
   NMIN     =      0    reboot dimension
   EREF     =   0.00    reference energy to select bands
   IMIX   =      4    mixing-type and parameters
     AMIX     =   0.40;   BMIX     =  1.00
     AMIX_MAG =   1.60;   BMIX_MAG =  1.00
     AMIN     =   0.10
     WC   =   100.;   INIMIX=   1;  MIXPRE=   1;  MAXMIX= -45

 Intra band minimization:
   WEIMIN = 0.0010     energy-eigenvalue tresh-hold
   EBREAK =  0.18E-07  absolut break condition
   DEPER  =   0.30     relativ break condition  

   TIME   =   0.40     timestep for ELM

  volume/ion in A,a.u.               =      15.65       105.60
  Fermi-wavevector in a.u.,A,eV,Ry     =   0.943976  1.783857 12.124032  0.891091
  Thomas-Fermi vector in A             =   2.071736

 Write flags
   LWAVE        =      F    write WAVECAR
   LDOWNSAMPLE  =      F    k-point downsampling of WAVECAR
   LCHARG       =      F    write CHGCAR
   LVTOT        =      F    write LOCPOT, total local potential
   LVHAR        =      F    write LOCPOT, Hartree potential only
   LELF         =      F    write electronic localiz. function (ELF)
   LORBIT       =      0    0 simple, 1 ext, 2 COOP (PROOUT), +10 PAW based schemes


 Dipole corrections
   LMONO  =      F    monopole corrections only (constant potential shift)
   LDIPOL =      F    correct potential (dipole corrections)
   IDIPOL =      0    1-x, 2-y, 3-z, 4-all directions 
   EPSILON=  1.0000000 bulk dielectric constant

 Exchange correlation treatment:
   GGA     =    --    GGA type
   LEXCH   =     8    internal setting for exchange type
   LIBXC   =     F    Libxc                    
   VOSKOWN =     0    Vosko Wilk Nusair interpolation
   LHFCALC =     F    Hartree Fock is set to
   LHFONE  =     F    Hartree Fock one center treatment
   AEXX    =    0.0000 exact exchange contribution

 Linear response parameters
   LEPSILON=     F    determine dielectric tensor
   LRPA    =     F    only Hartree local field effects (RPA)
   LNABLA  =     F    use nabla operator in PAW spheres
   LVEL    =     F    velocity operator in full k-point grid
   CSHIFT  =0.1000    complex shift for real part using Kramers Kronig
   OMEGAMAX=  -1.0    maximum frequency
   DEG_THRESHOLD= 0.2000000E-02 threshold for treating states as degnerate
   RTIME   =   -0.100 relaxation time in fs
  (WPLASMAI=    0.000 imaginary part of plasma frequency in eV, 0.658/RTIME)
   DFIELD  = 0.0000000 0.0000000 0.0000000 field for delta impulse in time

  Optional k-point grid parameters
   LKPOINTS_OPT  =     F    use optional k-point grid
   KPOINTS_OPT_MODE=     1    mode for optional k-point grid

 Orbital magnetization related:
   ORBITALMAG=     F  switch on orbital magnetization
   LCHIMAG   =     F  perturbation theory with respect to B field
   DQ        =  0.001000  dq finite difference perturbation B field
   LLRAUG    =     F  two centre corrections for induced B field
   LBONE     =     F  B-component reconstruction in AE one-centre
   LVGVCALC  =     T  calculate vGv susceptibility
   LVGVAPPL  =     F  apply vGv susceptibility instead of pGv for G=0

 Random number generation:
   RANDOM_GENERATOR = DEFAULT
   PCG_SEED         = not used


--------------------------------------------------------------------------------------------------------


 conjugate gradient relaxation of ions
 charge density and potential will be updated during run
 non-spin polarized calculation
 RMM-DIIS sequential band-by-band and
  variant of blocked Davidson during initial phase
 perform sub-space diagonalisation
    before iterative eigenvector-optimisation
 modified Broyden-mixing scheme, WC =      100.0
 initial mixing is a Kerker type mixing with AMIX =  0.4000 and BMIX =      1.0000
 Hartree-type preconditioning will be used
 using additional bands            8
 real space projection scheme for non local part
 use partial core corrections
 calculate Harris-corrections to forces   (improved forces if not selfconsistent)
 use gradient corrections 
 use of overlap-Matrix (Vanderbilt PP)
 Methfessel and Paxton  Order N= 1 SIGMA  =   0.20


--------------------------------------------------------------------------------------------------------


  energy-cutoff  :      400.00
  volume of cell :       62.59
      direct lattice vectors                 reciprocal lattice vectors
     3.970460030  0.000000000  0.000000000     0.251859984  0.000000000 -0.000000000
    -0.000000000  3.970460030  0.000000000     0.000000000  0.251859984  0.000000000
     0.000000000  0.000000000  3.970460030    -0.000000000 -0.000000000  0.251859984

  length of vectors
     3.970460030  3.970460030  3.970460030     0.251859984  0.251859984  0.251859984



 k-points in units of 2pi/SCALE and weight: Automatic kpoint scheme                 
   0.00618976  0.00618976  0.00618976       0.001
   0.01856928  0.00618976  0.00618976       0.003
   0.03094879  0.00618976  0.00618976       0.003
   0.04332831  0.00618976  0.00618976       0.003
   0.05570783  0.00618976  0.00618976       0.003
   0.06808735  0.00618976  0.00618976       0.003
   0.08046686  0.00618976  0.00618976       0.003
   0.09284638  0.00618976  0.00618976       0.003
   0.10522590  0.00618976  0.00618976       0.003
   0.11760541  0.00618976  0.00618976       0.003
   0.01856928  0.01856928  0.00618976       0.003
   0.03094879  0.01856928  0.00618976       0.006
   0.04332831  0.01856928  0.00618976       0.006
   0.05570783  0.01856928  0.00618976       0.006
   0.06808735  0.01856928  0.00618976       0.006
   0.08046686  0.01856928  0.00618976       0.006
   0.09284638  0.01856928  0.00618976       0.006
   0.10522590  0.01856928  0.00618976       0.006
   0.11760541  0.01856928  0.00618976       0.006
   0.03094879  0.03094879  0.00618976       0.003
   0.04332831  0.03094879  0.00618976       0.006
   0.05570783  0.03094879  0.00618976       0.006
   0.06808735  0.03094879  0.00618976       0.006
   0.08046686  0.03094879  0.00618976       0.006
   0.09284638  0.03094879  0.00618976       0.006
   0.10522590  0.03094879  0.00618976       0.006
   0.11760541  0.03094879  0.00618976       0.006
   0.04332831  0.04332831  0.00618976       0.003
   0.05570783  0.04332831  0.00618976       0.006
   0.06808735  0.04332831  0.00618976       0.006
   0.08046686  0.04332831  0.00618976       0.006
   0.09284638  0.04332831  0.00618976       0.006
   0.10522590  0.04332831  0.00618976       0.006
   0.11760541  0.04332831  0.00618976       0.006
   0.05570783  0.05570783  0.00618976       0.003
   0.06808735  0.05570783  0.00618976       0.006
   0.08046686  0.05570783  0.00618976       0.006
   0.09284638  0.05570783  0.00618976       0.006
   0.10522590  0.05570783  0.00618976       0.006
   0.11760541  0.05570783  0.00618976       0.006
   0.06808735  0.06808735  0.00618976       0.003
   0.08046686  0.06808735  0.00618976       0.006
   0.09284638  0.06808735  0.00618976       0.006
   0.10522590  0.06808735  0.00618976       0.006
   0.11760541  0.06808735  0.00618976       0.006
   0.08046686  0.08046686  0.00618976       0.003
   0.09284638  0.08046686  0.00618976       0.006
   0.10522590  0.08046686  0.00618976       0.006
   0.11760541  0.08046686  0.00618976       0.006
   0.09284638  0.09284638  0.00618976       0.003
   0.10522590  0.09284638  0.00618976       0.006
   0.11760541  0.09284638  0.00618976       0.006
   0.10522590  0.10522590  0.00618976       0.003
   0.11760541  0.10522590  0.00618976       0.006
   0.11760541  0.11760541  0.00618976       0.003
   0.01856928  0.01856928  0.01856928       0.001
   0.03094879  0.01856928  0.01856928       0.003
   0.04332831  0.01856928  0.01856928       0.003
   0.05570783  0.01856928  0.01856928       0.003
   0.06808735  0.01856928  0.01856928       0.003
   0.08046686  0.01856928  0.01856928       0.003
   0.09284638  0.01856928  0.01856928       0.003
   0.10522590  0.01856928  0.01856928       0.003
   0.11760541  0.01856928  0.01856928       0.003
   0.03094879  0.03094879  0.01856928       0.003
   0.04332831  0.03094879  0.01856928       0.006
   0.05570783  0.03094879  0.01856928       0.006
   0.06808735  0.03094879  0.01856928       0.006
   0.08046686  0.03094879  0.01856928       0.006
   0.09284638  0.03094879  0.01856928       0.006
   0.10522590  0.03094879  0.01856928       0.006
   0.11760541  0.03094879  0.01856928       0.006
   0.04332831  0.04332831  0.01856928       0.003
   0.05570783  0.04332831  0.01856928       0.006
   0.06808735  0.04332831  0.01856928       0.006
   0.08046686  0.04332831  0.01856928       0.006
   0.09284638  0.04332831  0.01856928       0.006
   0.10522590  0.04332831  0.01856928       0.006
   0.11760541  0.04332831  0.01856928       0.006
   0.05570783  0.05570783  0.01856928       0.003
   0.06808735  0.05570783  0.01856928       0.006
   0.08046686  0.05570783  0.01856928       0.006
   0.09284638  0.05570783  0.01856928       0.006
   0.10522590  0.05570783  0.01856928       0.006
   0.11760541  0.05570783  0.01856928       0.006
   0.06808735  0.06808735  0.01856928       0.003
   0.08046686  0.06808735  0.01856928       0.006
   0.09284638  0.06808735  0.01856928       0.006
   0.10522590  0.06808735  0.01856928       0.006
   0.11760541  0.06808735  0.01856928       0.006
   0.08046686  0.08046686  0.01856928       0.003
   0.09284638  0.08046686  0.01856928       0.006
   0.10522590  0.08046686  0.01856928       0.006
   0.11760541  0.08046686  0.01856928       0.006
   0.09284638  0.09284638  0.01856928       0.003
   0.10522590  0.09284638  0.01856928       0.006
   0.11760541  0.09284638  0.01856928       0.006
   0.10522590  0.10522590  0.01856928       0.003
   0.11760541  0.10522590  0.01856928       0.006
   0.11760541  0.11760541  0.01856928       0.003
   0.03094879  0.03094879  0.03094879       0.001
   0.04332831  0.03094879  0.03094879       0.003
   0.05570783  0.03094879  0.03094879       0.003
   0.06808735  0.03094879  0.03094879       0.003
   0.08046686  0.03094879  0.03094879       0.003
   0.09284638  0.03094879  0.03094879       0.003
   0.10522590  0.03094879  0.03094879       0.003
   0.11760541  0.03094879  0.03094879       0.003
   0.04332831  0.04332831  0.03094879       0.003
   0.05570783  0.04332831  0.03094879       0.006
   0.06808735  0.04332831  0.03094879       0.006
   0.08046686  0.04332831  0.03094879       0.006
   0.09284638  0.04332831  0.03094879       0.006
   0.10522590  0.04332831  0.03094879       0.006
   0.11760541  0.04332831  0.03094879       0.006
   0.05570783  0.05570783  0.03094879       0.003
   0.06808735  0.05570783  0.03094879       0.006
   0.08046686  0.05570783  0.03094879       0.006
   0.09284638  0.05570783  0.03094879       0.006
   0.10522590  0.05570783  0.03094879       0.006
   0.11760541  0.05570783  0.03094879       0.006
   0.06808735  0.06808735  0.03094879       0.003
   0.08046686  0.06808735  0.03094879       0.006
   0.09284638  0.06808735  0.03094879       0.006
   0.10522590  0.06808735  0.03094879       0.006
   0.11760541  0.06808735  0.03094879       0.006
   0.08046686  0.08046686  0.03094879       0.003
   0.09284638  0.08046686  0.03094879       0.006
   0.10522590  0.08046686  0.03094879       0.006
   0.11760541  0.08046686  0.03094879       0.006
   0.09284638  0.09284638  0.03094879       0.003
   0.10522590  0.09284638  0.03094879       0.006
   0.11760541  0.09284638  0.03094879       0.006
   0.10522590  0.10522590  0.03094879       0.003
   0.11760541  0.10522590  0.03094879       0.006
   0.11760541  0.11760541  0.03094879       0.003
   0.04332831  0.04332831  0.04332831       0.001
   0.05570783  0.04332831  0.04332831       0.003
   0.06808735  0.04332831  0.04332831       0.003
   0.08046686  0.04332831  0.04332831       0.003
   0.09284638  0.04332831  0.04332831       0.003
   0.10522590  0.04332831  0.04332831       0.003
   0.11760541  0.04332831  0.04332831       0.003
   0.05570783  0.05570783  0.04332831       0.003
   0.06808735  0.05570783  0.04332831       0.006
   0.08046686  0.05570783  0.04332831       0.006
   0.09284638  0.05570783  0.04332831       0.006
   0.10522590  0.05570783  0.04332831       0.006
   0.11760541  0.05570783  0.04332831       0.006
   0.06808735  0.06808735  0.04332831       0.003
   0.08046686  0.06808735  0.04332831       0.006
   0.09284638  0.06808735  0.04332831       0.006
   0.10522590  0.06808735  0.04332831       0.006
   0.11760541  0.06808735  0.04332831       0.006
   0.08046686  0.08046686  0.04332831       0.003
   0.09284638  0.08046686  0.04332831       0.006
   0.10522590  0.08046686  0.04332831       0.006
   0.11760541  0.08046686  0.04332831       0.006
   0.09284638  0.09284638  0.04332831       0.003
   0.10522590  0.09284638  0.04332831       0.006
   0.11760541  0.09284638  0.04332831       0.006
   0.10522590  0.10522590  0.04332831       0.003
   0.11760541  0.10522590  0.04332831       0.006
   0.11760541  0.11760541  0.04332831       0.003
   0.05570783  0.05570783  0.05570783       0.001
   0.06808735  0.05570783  0.05570783       0.003
   0.08046686  0.05570783  0.05570783       0.003
   0.09284638  0.05570783  0.05570783       0.003
   0.10522590  0.05570783  0.05570783       0.003
   0.11760541  0.05570783  0.05570783       0.003
   0.06808735  0.06808735  0.05570783       0.003
   0.08046686  0.06808735  0.05570783       0.006
   0.09284638  0.06808735  0.05570783       0.006
   0.10522590  0.06808735  0.05570783       0.006
   0.11760541  0.06808735  0.05570783       0.006
   0.08046686  0.08046686  0.05570783       0.003
   0.09284638  0.08046686  0.05570783       0.006
   0.10522590  0.08046686  0.05570783       0.006
   0.11760541  0.08046686  0.05570783       0.006
   0.09284638  0.09284638  0.05570783       0.003
   0.10522590  0.09284638  0.05570783       0.006
   0.11760541  0.09284638  0.05570783       0.006
   0.10522590  0.10522590  0.05570783       0.003
   0.11760541  0.10522590  0.05570783       0.006
   0.11760541  0.11760541  0.05570783       0.003
   0.06808735  0.06808735  0.06808735       0.001
   0.08046686  0.06808735  0.06808735       0.003
   0.09284638  0.06808735  0.06808735       0.003
   0.10522590  0.06808735  0.06808735       0.003
   0.11760541  0.06808735  0.06808735       0.003
   0.08046686  0.08046686  0.06808735       0.003
   0.09284638  0.08046686  0.06808735       0.006
   0.10522590  0.08046686  0.06808735       0.006
   0.11760541  0.08046686  0.06808735       0.006
   0.09284638  0.09284638  0.06808735       0.003
   0.10522590  0.09284638  0.06808735       0.006
   0.11760541  0.09284638  0.06808735       0.006
   0.10522590  0.10522590  0.06808735       0.003
   0.11760541  0.10522590  0.06808735       0.006
   0.11760541  0.11760541  0.06808735       0.003
   0.08046686  0.08046686  0.08046686       0.001
   0.09284638  0.08046686  0.08046686       0.003
   0.10522590  0.08046686  0.08046686       0.003
   0.11760541  0.08046686  0.08046686       0.003
   0.09284638  0.09284638  0.08046686       0.003
   0.10522590  0.09284638  0.08046686       0.006
   0.11760541  0.09284638  0.08046686       0.006
   0.10522590  0.10522590  0.08046686       0.003
   0.11760541  0.10522590  0.08046686       0.006
   0.11760541  0.11760541  0.08046686       0.003
   0.09284638  0.09284638  0.09284638       0.001
   0.10522590  0.09284638  0.09284638       0.003
   0.11760541  0.09284638  0.09284638       0.003
   0.10522590  0.10522590  0.09284638       0.003
   0.11760541  0.10522590  0.09284638       0.006
   0.11760541  0.11760541  0.09284638       0.003
   0.10522590  0.10522590  0.10522590       0.001
   0.11760541  0.10522590  0.10522590       0.003
   0.11760541  0.11760541  0.10522590       0.003
   0.11760541  0.11760541  0.11760541       0.001

 k-points in reciprocal lattice and weights: Automatic kpoint scheme                 
   0.02500000  0.02500000  0.02500000       0.001
   0.07500000  0.02500000  0.02500000       0.003
   0.12500000  0.02500000  0.02500000       0.003
   0.17500000  0.02500000  0.02500000       0.003
   0.22500000  0.02500000  0.02500000       0.003
   0.27500000  0.02500000  0.02500000       0.003
   0.32500000  0.02500000  0.02500000       0.003
   0.37500000  0.02500000  0.02500000       0.003
   0.42500000  0.02500000  0.02500000       0.003
   0.47500000  0.02500000  0.02500000       0.003
   0.07500000  0.07500000  0.02500000       0.003
   0.12500000  0.07500000  0.02500000       0.006
   0.17500000  0.07500000  0.02500000       0.006
   0.22500000  0.07500000  0.02500000       0.006
   0.27500000  0.07500000  0.02500000       0.006
   0.32500000  0.07500000  0.02500000       0.006
   0.37500000  0.07500000  0.02500000       0.006
   0.42500000  0.07500000  0.02500000       0.006
   0.47500000  0.07500000  0.02500000       0.006
   0.12500000  0.12500000  0.02500000       0.003
   0.17500000  0.12500000  0.02500000       0.006
   0.22500000  0.12500000  0.02500000       0.006
   0.27500000  0.12500000  0.02500000       0.006
   0.32500000  0.12500000  0.02500000       0.006
   0.37500000  0.12500000  0.02500000       0.006
   0.42500000  0.12500000  0.02500000       0.006
   0.47500000  0.12500000  0.02500000       0.006
   0.17500000  0.17500000  0.02500000       0.003
   0.22500000  0.17500000  0.02500000       0.006
   0.27500000  0.17500000  0.02500000       0.006
   0.32500000  0.17500000  0.02500000       0.006
   0.37500000  0.17500000  0.02500000       0.006
   0.42500000  0.17500000  0.02500000       0.006
   0.47500000  0.17500000  0.02500000       0.006
   0.22500000  0.22500000  0.02500000       0.003
   0.27500000  0.22500000  0.02500000       0.006
   0.32500000  0.22500000  0.02500000       0.006
   0.37500000  0.22500000  0.02500000       0.006
   0.42500000  0.22500000  0.02500000       0.006
   0.47500000  0.22500000  0.02500000       0.006
   0.27500000  0.27500000  0.02500000       0.003
   0.32500000  0.27500000  0.02500000       0.006
   0.37500000  0.27500000  0.02500000       0.006
   0.42500000  0.27500000  0.02500000       0.006
   0.47500000  0.27500000  0.02500000       0.006
   0.32500000  0.32500000  0.02500000       0.003
   0.37500000  0.32500000  0.02500000       0.006
   0.42500000  0.32500000  0.02500000       0.006
   0.47500000  0.32500000  0.02500000       0.006
   0.37500000  0.37500000  0.02500000       0.003
   0.42500000  0.37500000  0.02500000       0.006
   0.47500000  0.37500000  0.02500000       0.006
   0.42500000  0.42500000  0.02500000       0.003
   0.47500000  0.42500000  0.02500000       0.006
   0.47500000  0.47500000  0.02500000       0.003
   0.07500000  0.07500000  0.07500000       0.001
   0.12500000  0.07500000  0.07500000       0.003
   0.17500000  0.07500000  0.07500000       0.003
   0.22500000  0.07500000  0.07500000       0.003
   0.27500000  0.07500000  0.07500000       0.003
   0.32500000  0.07500000  0.07500000       0.003
   0.37500000  0.07500000  0.07500000       0.003
   0.42500000  0.07500000  0.07500000       0.003
   0.47500000  0.07500000  0.07500000       0.003
   0.12500000  0.12500000  0.07500000       0.003
   0.17500000  0.12500000  0.07500000       0.006
   0.22500000  0.12500000  0.07500000       0.006
   0.27500000  0.12500000  0.07500000       0.006
   0.32500000  0.12500000  0.07500000       0.006
   0.37500000  0.12500000  0.07500000       0.006
   0.42500000  0.12500000  0.07500000       0.006
   0.47500000  0.12500000  0.07500000       0.006
   0.17500000  0.17500000  0.07500000       0.003
   0.22500000  0.17500000  0.07500000       0.006
   0.27500000  0.17500000  0.07500000       0.006
   0.32500000  0.17500000  0.07500000       0.006
   0.37500000  0.17500000  0.07500000       0.006
   0.42500000  0.17500000  0.07500000       0.006
   0.47500000  0.17500000  0.07500000       0.006
   0.22500000  0.22500000  0.07500000       0.003
   0.27500000  0.22500000  0.07500000       0.006
   0.32500000  0.22500000  0.07500000       0.006
   0.37500000  0.22500000  0.07500000       0.006
   0.42500000  0.22500000  0.07500000       0.006
   0.47500000  0.22500000  0.07500000       0.006
   0.27500000  0.27500000  0.07500000       0.003
   0.32500000  0.27500000  0.07500000       0.006
   0.37500000  0.27500000  0.07500000       0.006
   0.42500000  0.27500000  0.07500000       0.006
   0.47500000  0.27500000  0.07500000       0.006
   0.32500000  0.32500000  0.07500000       0.003
   0.37500000  0.32500000  0.07500000       0.006
   0.42500000  0.32500000  0.07500000       0.006
   0.47500000  0.32500000  0.07500000       0.006
   0.37500000  0.37500000  0.07500000       0.003
   0.42500000  0.37500000  0.07500000       0.006
   0.47500000  0.37500000  0.07500000       0.006
   0.42500000  0.42500000  0.07500000       0.003
   0.47500000  0.42500000  0.07500000       0.006
   0.47500000  0.47500000  0.07500000       0.003
   0.12500000  0.12500000  0.12500000       0.001
   0.17500000  0.12500000  0.12500000       0.003
   0.22500000  0.12500000  0.12500000       0.003
   0.27500000  0.12500000  0.12500000       0.003
   0.32500000  0.12500000  0.12500000       0.003
   0.37500000  0.12500000  0.12500000       0.003
   0.42500000  0.12500000  0.12500000       0.003
   0.47500000  0.12500000  0.12500000       0.003
   0.17500000  0.17500000  0.12500000       0.003
   0.22500000  0.17500000  0.12500000       0.006
   0.27500000  0.17500000  0.12500000       0.006
   0.32500000  0.17500000  0.12500000       0.006
   0.37500000  0.17500000  0.12500000       0.006
   0.42500000  0.17500000  0.12500000       0.006
   0.47500000  0.17500000  0.12500000       0.006
   0.22500000  0.22500000  0.12500000       0.003
   0.27500000  0.22500000  0.12500000       0.006
   0.32500000  0.22500000  0.12500000       0.006
   0.37500000  0.22500000  0.12500000       0.006
   0.42500000  0.22500000  0.12500000       0.006
   0.47500000  0.22500000  0.12500000       0.006
   0.27500000  0.27500000  0.12500000       0.003
   0.32500000  0.27500000  0.12500000       0.006
   0.37500000  0.27500000  0.12500000       0.006
   0.42500000  0.27500000  0.12500000       0.006
   0.47500000  0.27500000  0.12500000       0.006
   0.32500000  0.32500000  0.12500000       0.003
   0.37500000  0.32500000  0.12500000       0.006
   0.42500000  0.32500000  0.12500000       0.006
   0.47500000  0.32500000  0.12500000       0.006
   0.37500000  0.37500000  0.12500000       0.003
   0.42500000  0.37500000  0.12500000       0.006
   0.47500000  0.37500000  0.12500000       0.006
   0.42500000  0.42500000  0.12500000       0.003
   0.47500000  0.42500000  0.12500000       0.006
   0.47500000  0.47500000  0.12500000       0.003
   0.17500000  0.17500000  0.17500000       0.001
   0.22500000  0.17500000  0.17500000       0.003
   0.27500000  0.17500000  0.17500000       0.003
   0.32500000  0.17500000  0.17500000       0.003
   0.37500000  0.17500000  0.17500000       0.003
   0.42500000  0.17500000  0.17500000       0.003
   0.47500000  0.17500000  0.17500000       0.003
   0.22500000  0.22500000  0.17500000       0.003
   0.27500000  0.22500000  0.17500000       0.006
   0.32500000  0.22500000  0.17500000       0.006
   0.37500000  0.22500000  0.17500000       0.006
   0.42500000  0.22500000  0.17500000       0.006
   0.47500000  0.22500000  0.17500000       0.006
   0.27500000  0.27500000  0.17500000       0.003
   0.32500000  0.27500000  0.17500000       0.006
   0.37500000  0.27500000  0.17500000       0.006
   0.42500000  0.27500000  0.17500000       0.006
   0.47500000  0.27500000  0.17500000       0.006
   0.32500000  0.32500000  0.17500000       0.003
   0.37500000  0.32500000  0.17500000       0.006
   0.42500000  0.32500000  0.17500000       0.006
   0.47500000  0.32500000  0.17500000       0.006
   0.37500000  0.37500000  0.17500000       0.003
   0.42500000  0.37500000  0.17500000       0.006
   0.47500000  0.37500000  0.17500000       0.006
   0.42500000  0.42500000  0.17500000       0.003
   0.47500000  0.42500000  0.17500000       0.006
   0.47500000  0.47500000  0.17500000       0.003
   0.22500000  0.22500000  0.22500000       0.001
   0.27500000  0.22500000  0.22500000       0.003
   0.32500000  0.22500000  0.22500000       0.003
   0.37500000  0.22500000  0.22500000       0.003
   0.42500000  0.22500000  0.22500000       0.003
   0.47500000  0.22500000  0.22500000       0.003
   0.27500000  0.27500000  0.22500000       0.003
   0.32500000  0.27500000  0.22500000       0.006
   0.37500000  0.27500000  0.22500000       0.006
   0.42500000  0.27500000  0.22500000       0.006
   0.47500000  0.27500000  0.22500000       0.006
   0.32500000  0.32500000  0.22500000       0.003
   0.37500000  0.32500000  0.22500000       0.006
   0.42500000  0.32500000  0.22500000       0.006
   0.47500000  0.32500000  0.22500000       0.006
   0.37500000  0.37500000  0.22500000       0.003
   0.42500000  0.37500000  0.22500000       0.006
   0.47500000  0.37500000  0.22500000       0.006
   0.42500000  0.42500000  0.22500000       0.003
   0.47500000  0.42500000  0.22500000       0.006
   0.47500000  0.47500000  0.22500000       0.003
   0.27500000  0.27500000  0.27500000       0.001
   0.32500000  0.27500000  0.27500000       0.003
   0.37500000  0.27500000  0.27500000       0.003
   0.42500000  0.27500000  0.27500000       0.003
   0.47500000  0.27500000  0.27500000       0.003
   0.32500000  0.32500000  0.27500000       0.003
   0.37500000  0.32500000  0.27500000       0.006
   0.42500000  0.32500000  0.27500000       0.006
   0.47500000  0.32500000  0.27500000       0.006
   0.37500000  0.37500000  0.27500000       0.003
   0.42500000  0.37500000  0.27500000       0.006
   0.47500000  0.37500000  0.27500000       0.006
   0.42500000  0.42500000  0.27500000       0.003
   0.47500000  0.42500000  0.27500000       0.006
   0.47500000  0.47500000  0.27500000       0.003
   0.32500000  0.32500000  0.32500000       0.001
   0.37500000  0.32500000  0.32500000       0.003
   0.42500000  0.32500000  0.32500000       0.003
   0.47500000  0.32500000  0.32500000       0.003
   0.37500000  0.37500000  0.32500000       0.003
   0.42500000  0.37500000  0.32500000       0.006
   0.47500000  0.37500000  0.32500000       0.006
   0.42500000  0.42500000  0.32500000       0.003
   0.47500000  0.42500000  0.32500000       0.006
   0.47500000  0.47500000  0.32500000       0.003
   0.37500000  0.37500000  0.37500000       0.001
   0.42500000  0.37500000  0.37500000       0.003
   0.47500000  0.37500000  0.37500000       0.003
   0.42500000  0.42500000  0.37500000       0.003
   0.47500000  0.42500000  0.37500000       0.006
   0.47500000  0.47500000  0.37500000       0.003
   0.42500000  0.42500000  0.42500000       0.001
   0.47500000  0.42500000  0.42500000       0.003
   0.47500000  0.47500000  0.42500000       0.003
   0.47500000  0.47500000  0.47500000       0.001

 position of ions in fractional coordinates (direct lattice) 
   0.00000000  0.00000000  0.00000000
   0.00000000  0.50000000  0.50000000
   0.50000000  0.00000000  0.50000000
   0.50000000  0.50000000  0.00000000

 position of ions in cartesian coordinates  (Angst):
   0.00000000  0.00000000  0.00000000
  -0.00000000  1.98523002  1.98523002
   1.98523002  0.00000000  1.98523002
   1.98523002  1.98523002  0.00000000



--------------------------------------------------------------------------------------------------------


 k-point   1 :   0.0250 0.0250 0.0250  plane waves:    1159
 k-point   2 :   0.0750 0.0250 0.0250  plane waves:    1157
 k-point   3 :   0.1250 0.0250 0.0250  plane waves:    1149
 k-point   4 :   0.1750 0.0250 0.0250  plane waves:    1137
 k-point   5 :   0.2250 0.0250 0.0250  plane waves:    1141
 k-point   6 :   0.2750 0.0250 0.0250  plane waves:    1141
 k-point   7 :   0.3250 0.0250 0.0250  plane waves:    1142
 k-point   8 :   0.3750 0.0250 0.0250  plane waves:    1149
 k-point   9 :   0.4250 0.0250 0.0250  plane waves:    1143
 k-point  10 :   0.4750 0.0250 0.0250  plane waves:    1144
 k-point  11 :   0.0750 0.0750 0.0250  plane waves:    1152
 k-point  12 :   0.1250 0.0750 0.0250  plane waves:    1145
 k-point  13 :   0.1750 0.0750 0.0250  plane waves:    1141
 k-point  14 :   0.2250 0.0750 0.0250  plane waves:    1138
 k-point  15 :   0.2750 0.0750 0.0250  plane waves:    1139
 k-point  16 :   0.3250 0.0750 0.0250  plane waves:    1147
 k-point  17 :   0.3750 0.0750 0.0250  plane waves:    1146
 k-point  18 :   0.4250 0.0750 0.0250  plane waves:    1144
 k-point  19 :   0.4750 0.0750 0.0250  plane waves:    1141
 k-point  20 :   0.1250 0.1250 0.0250  plane waves:    1137
 k-point  21 :   0.1750 0.1250 0.0250  plane waves:    1139
 k-point  22 :   0.2250 0.1250 0.0250  plane waves:    1142
 k-point  23 :   0.2750 0.1250 0.0250  plane waves:    1141
 k-point  24 :   0.3250 0.1250 0.0250  plane waves:    1143
 k-point  25 :   0.3750 0.1250 0.0250  plane waves:    1144
 k-point  26 :   0.4250 0.1250 0.0250  plane waves:    1142
 k-point  27 :   0.4750 0.1250 0.0250  plane waves:    1141
 k-point  28 :   0.1750 0.1750 0.0250  plane waves:    1139
 k-point  29 :   0.2250 0.1750 0.0250  plane waves:    1134
 k-point  30 :   0.2750 0.1750 0.0250  plane waves:    1141
 k-point  31 :   0.3250 0.1750 0.0250  plane waves:    1139
 k-point  32 :   0.3750 0.1750 0.0250  plane waves:    1141
 k-point  33 :   0.4250 0.1750 0.0250  plane waves:    1140
 k-point  34 :   0.4750 0.1750 0.0250  plane waves:    1139
 k-point  35 :   0.2250 0.2250 0.0250  plane waves:    1141
 k-point  36 :   0.2750 0.2250 0.0250  plane waves:    1141
 k-point  37 :   0.3250 0.2250 0.0250  plane waves:    1144
 k-point  38 :   0.3750 0.2250 0.0250  plane waves:    1137
 k-point  39 :   0.4250 0.2250 0.0250  plane waves:    1137
 k-point  40 :   0.4750 0.2250 0.0250  plane waves:    1134
 k-point  41 :   0.2750 0.2750 0.0250  plane waves:    1142
 k-point  42 :   0.3250 0.2750 0.0250  plane waves:    1139
 k-point  43 :   0.3750 0.2750 0.0250  plane waves:    1138
 k-point  44 :   0.4250 0.2750 0.0250  plane waves:    1138
 k-point  45 :   0.4750 0.2750 0.0250  plane waves:    1134
 k-point  46 :   0.3250 0.3250 0.0250  plane waves:    1149
 k-point  47 :   0.3750 0.3250 0.0250  plane waves:    1138
 k-point  48 :   0.4250 0.3250 0.0250  plane waves:    1131
 k-point  49 :   0.4750 0.3250 0.0250  plane waves:    1130
 k-point  50 :   0.3750 0.3750 0.0250  plane waves:    1135
 k-point  51 :   0.4250 0.3750 0.0250  plane waves:    1133
 k-point  52 :   0.4750 0.3750 0.0250  plane waves:    1132
 k-point  53 :   0.4250 0.4250 0.0250  plane waves:    1132
 k-point  54 :   0.4750 0.4250 0.0250  plane waves:    1129
 k-point  55 :   0.4750 0.4750 0.0250  plane waves:    1127
 k-point  56 :   0.0750 0.0750 0.0750  plane waves:    1141
 k-point  57 :   0.1250 0.0750 0.0750  plane waves:    1139
 k-point  58 :   0.1750 0.0750 0.0750  plane waves:    1138
 k-point  59 :   0.2250 0.0750 0.0750  plane waves:    1141
 k-point  60 :   0.2750 0.0750 0.0750  plane waves:    1144
 k-point  61 :   0.3250 0.0750 0.0750  plane waves:    1147
 k-point  62 :   0.3750 0.0750 0.0750  plane waves:    1147
 k-point  63 :   0.4250 0.0750 0.0750  plane waves:    1151
 k-point  64 :   0.4750 0.0750 0.0750  plane waves:    1146
 k-point  65 :   0.1250 0.1250 0.0750  plane waves:    1136
 k-point  66 :   0.1750 0.1250 0.0750  plane waves:    1137
 k-point  67 :   0.2250 0.1250 0.0750  plane waves:    1143
 k-point  68 :   0.2750 0.1250 0.0750  plane waves:    1144
 k-point  69 :   0.3250 0.1250 0.0750  plane waves:    1144
 k-point  70 :   0.3750 0.1250 0.0750  plane waves:    1147
 k-point  71 :   0.4250 0.1250 0.0750  plane waves:    1143
 k-point  72 :   0.4750 0.1250 0.0750  plane waves:    1144
 k-point  73 :   0.1750 0.1750 0.0750  plane waves:    1142
 k-point  74 :   0.2250 0.1750 0.0750  plane waves:    1142
 k-point  75 :   0.2750 0.1750 0.0750  plane waves:    1145
 k-point  76 :   0.3250 0.1750 0.0750  plane waves:    1141
 k-point  77 :   0.3750 0.1750 0.0750  plane waves:    1140
 k-point  78 :   0.4250 0.1750 0.0750  plane waves:    1139
 k-point  79 :   0.4750 0.1750 0.0750  plane waves:    1139
 k-point  80 :   0.2250 0.2250 0.0750  plane waves:    1144
 k-point  81 :   0.2750 0.2250 0.0750  plane waves:    1136
 k-point  82 :   0.3250 0.2250 0.0750  plane waves:    1141
 k-point  83 :   0.3750 0.2250 0.0750  plane waves:    1134
 k-point  84 :   0.4250 0.2250 0.0750  plane waves:    1132
 k-point  85 :   0.4750 0.2250 0.0750  plane waves:    1130
 k-point  86 :   0.2750 0.2750 0.0750  plane waves:    1144
 k-point  87 :   0.3250 0.2750 0.0750  plane waves:    1136
 k-point  88 :   0.3750 0.2750 0.0750  plane waves:    1135
 k-point  89 :   0.4250 0.2750 0.0750  plane waves:    1135
 k-point  90 :   0.4750 0.2750 0.0750  plane waves:    1133
 k-point  91 :   0.3250 0.3250 0.0750  plane waves:    1140
 k-point  92 :   0.3750 0.3250 0.0750  plane waves:    1136
 k-point  93 :   0.4250 0.3250 0.0750  plane waves:    1133
 k-point  94 :   0.4750 0.3250 0.0750  plane waves:    1132
 k-point  95 :   0.3750 0.3750 0.0750  plane waves:    1135
 k-point  96 :   0.4250 0.3750 0.0750  plane waves:    1135
 k-point  97 :   0.4750 0.3750 0.0750  plane waves:    1133
 k-point  98 :   0.4250 0.4250 0.0750  plane waves:    1133
 k-point  99 :   0.4750 0.4250 0.0750  plane waves:    1135
 k-point 100 :   0.4750 0.4750 0.0750  plane waves:    1135
 k-point 101 :   0.1250 0.1250 0.1250  plane waves:    1135
 k-point 102 :   0.1750 0.1250 0.1250  plane waves:    1133
 k-point 103 :   0.2250 0.1250 0.1250  plane waves:    1138
 k-point 104 :   0.2750 0.1250 0.1250  plane waves:    1144
 k-point 105 :   0.3250 0.1250 0.1250  plane waves:    1149
 k-point 106 :   0.3750 0.1250 0.1250  plane waves:    1148
 k-point 107 :   0.4250 0.1250 0.1250  plane waves:    1146
 k-point 108 :   0.4750 0.1250 0.1250  plane waves:    1144
 k-point 109 :   0.1750 0.1750 0.1250  plane waves:    1141
 k-point 110 :   0.2250 0.1750 0.1250  plane waves:    1139
 k-point 111 :   0.2750 0.1750 0.1250  plane waves:    1142
 k-point 112 :   0.3250 0.1750 0.1250  plane waves:    1142
 k-point 113 :   0.3750 0.1750 0.1250  plane waves:    1139
 k-point 114 :   0.4250 0.1750 0.1250  plane waves:    1140
 k-point 115 :   0.4750 0.1750 0.1250  plane waves:    1141
 k-point 116 :   0.2250 0.2250 0.1250  plane waves:    1144
 k-point 117 :   0.2750 0.2250 0.1250  plane waves:    1137
 k-point 118 :   0.3250 0.2250 0.1250  plane waves:    1138
 k-point 119 :   0.3750 0.2250 0.1250  plane waves:    1138
 k-point 120 :   0.4250 0.2250 0.1250  plane waves:    1135
 k-point 121 :   0.4750 0.2250 0.1250  plane waves:    1139
 k-point 122 :   0.2750 0.2750 0.1250  plane waves:    1140
 k-point 123 :   0.3250 0.2750 0.1250  plane waves:    1137
 k-point 124 :   0.3750 0.2750 0.1250  plane waves:    1132
 k-point 125 :   0.4250 0.2750 0.1250  plane waves:    1136
 k-point 126 :   0.4750 0.2750 0.1250  plane waves:    1134
 k-point 127 :   0.3250 0.3250 0.1250  plane waves:    1135
 k-point 128 :   0.3750 0.3250 0.1250  plane waves:    1140
 k-point 129 :   0.4250 0.3250 0.1250  plane waves:    1135
 k-point 130 :   0.4750 0.3250 0.1250  plane waves:    1131
 k-point 131 :   0.3750 0.3750 0.1250  plane waves:    1136
 k-point 132 :   0.4250 0.3750 0.1250  plane waves:    1136
 k-point 133 :   0.4750 0.3750 0.1250  plane waves:    1133
 k-point 134 :   0.4250 0.4250 0.1250  plane waves:    1134
 k-point 135 :   0.4750 0.4250 0.1250  plane waves:    1136
 k-point 136 :   0.4750 0.4750 0.1250  plane waves:    1132
 k-point 137 :   0.1750 0.1750 0.1750  plane waves:    1129
 k-point 138 :   0.2250 0.1750 0.1750  plane waves:    1137
 k-point 139 :   0.2750 0.1750 0.1750  plane waves:    1136
 k-point 140 :   0.3250 0.1750 0.1750  plane waves:    1145
 k-point 141 :   0.3750 0.1750 0.1750  plane waves:    1144
 k-point 142 :   0.4250 0.1750 0.1750  plane waves:    1142
 k-point 143 :   0.4750 0.1750 0.1750  plane waves:    1144
 k-point 144 :   0.2250 0.2250 0.1750  plane waves:    1137
 k-point 145 :   0.2750 0.2250 0.1750  plane waves:    1145
 k-point 146 :   0.3250 0.2250 0.1750  plane waves:    1143
 k-point 147 :   0.3750 0.2250 0.1750  plane waves:    1139
 k-point 148 :   0.4250 0.2250 0.1750  plane waves:    1141
 k-point 149 :   0.4750 0.2250 0.1750  plane waves:    1141
 k-point 150 :   0.2750 0.2750 0.1750  plane waves:    1140
 k-point 151 :   0.3250 0.2750 0.1750  plane waves:    1142
 k-point 152 :   0.3750 0.2750 0.1750  plane waves:    1139
 k-point 153 :   0.4250 0.2750 0.1750  plane waves:    1139
 k-point 154 :   0.4750 0.2750 0.1750  plane waves:    1133
 k-point 155 :   0.3250 0.3250 0.1750  plane waves:    1136
 k-point 156 :   0.3750 0.3250 0.1750  plane waves:    1135
 k-point 157 :   0.4250 0.3250 0.1750  plane waves:    1136
 k-point 158 :   0.4750 0.3250 0.1750  plane waves:    1134
 k-point 159 :   0.3750 0.3750 0.1750  plane waves:    1136
 k-point 160 :   0.4250 0.3750 0.1750  plane waves:    1133
 k-point 161 :   0.4750 0.3750 0.1750  plane waves:    1130
 k-point 162 :   0.4250 0.4250 0.1750  plane waves:    1135
 k-point 163 :   0.4750 0.4250 0.1750  plane waves:    1133
 k-point 164 :   0.4750 0.4750 0.1750  plane waves:    1130
 k-point 165 :   0.2250 0.2250 0.2250  plane waves:    1135
 k-point 166 :   0.2750 0.2250 0.2250  plane waves:    1142
 k-point 167 :   0.3250 0.2250 0.2250  plane waves:    1140
 k-point 168 :   0.3750 0.2250 0.2250  plane waves:    1136
 k-point 169 :   0.4250 0.2250 0.2250  plane waves:    1136
 k-point 170 :   0.4750 0.2250 0.2250  plane waves:    1139
 k-point 171 :   0.2750 0.2750 0.2250  plane waves:    1144
 k-point 172 :   0.3250 0.2750 0.2250  plane waves:    1138
 k-point 173 :   0.3750 0.2750 0.2250  plane waves:    1137
 k-point 174 :   0.4250 0.2750 0.2250  plane waves:    1136
 k-point 175 :   0.4750 0.2750 0.2250  plane waves:    1134
 k-point 176 :   0.3250 0.3250 0.2250  plane waves:    1137
 k-point 177 :   0.3750 0.3250 0.2250  plane waves:    1133
 k-point 178 :   0.4250 0.3250 0.2250  plane waves:    1136
 k-point 179 :   0.4750 0.3250 0.2250  plane waves:    1133
 k-point 180 :   0.3750 0.3750 0.2250  plane waves:    1131
 k-point 181 :   0.4250 0.3750 0.2250  plane waves:    1138
 k-point 182 :   0.4750 0.3750 0.2250  plane waves:    1134
 k-point 183 :   0.4250 0.4250 0.2250  plane waves:    1137
 k-point 184 :   0.4750 0.4250 0.2250  plane waves:    1132
 k-point 185 :   0.4750 0.4750 0.2250  plane waves:    1133
 k-point 186 :   0.2750 0.2750 0.2750  plane waves:    1145
 k-point 187 :   0.3250 0.2750 0.2750  plane waves:    1138
 k-point 188 :   0.3750 0.2750 0.2750  plane waves:    1132
 k-point 189 :   0.4250 0.2750 0.2750  plane waves:    1132
 k-point 190 :   0.4750 0.2750 0.2750  plane waves:    1135
 k-point 191 :   0.3250 0.3250 0.2750  plane waves:    1136
 k-point 192 :   0.3750 0.3250 0.2750  plane waves:    1135
 k-point 193 :   0.4250 0.3250 0.2750  plane waves:    1133
 k-point 194 :   0.4750 0.3250 0.2750  plane waves:    1134
 k-point 195 :   0.3750 0.3750 0.2750  plane waves:    1133
 k-point 196 :   0.4250 0.3750 0.2750  plane waves:    1133
 k-point 197 :   0.4750 0.3750 0.2750  plane waves:    1132
 k-point 198 :   0.4250 0.4250 0.2750  plane waves:    1126
 k-point 199 :   0.4750 0.4250 0.2750  plane waves:    1127
 k-point 200 :   0.4750 0.4750 0.2750  plane waves:    1123
 k-point 201 :   0.3250 0.3250 0.3250  plane waves:    1124
 k-point 202 :   0.3750 0.3250 0.3250  plane waves:    1128
 k-point 203 :   0.4250 0.3250 0.3250  plane waves:    1132
 k-point 204 :   0.4750 0.3250 0.3250  plane waves:    1128
 k-point 205 :   0.3750 0.3750 0.3250  plane waves:    1132
 k-point 206 :   0.4250 0.3750 0.3250  plane waves:    1128
 k-point 207 :   0.4750 0.3750 0.3250  plane waves:    1124
 k-point 208 :   0.4250 0.4250 0.3250  plane waves:    1123
 k-point 209 :   0.4750 0.4250 0.3250  plane waves:    1121
 k-point 210 :   0.4750 0.4750 0.3250  plane waves:    1117
 k-point 211 :   0.3750 0.3750 0.3750  plane waves:    1124
 k-point 212 :   0.4250 0.3750 0.3750  plane waves:    1120
 k-point 213 :   0.4750 0.3750 0.3750  plane waves:    1122
 k-point 214 :   0.4250 0.4250 0.3750  plane waves:    1119
 k-point 215 :   0.4750 0.4250 0.3750  plane waves:    1118
 k-point 216 :   0.4750 0.4750 0.3750  plane waves:    1112
 k-point 217 :   0.4250 0.4250 0.4250  plane waves:    1112
 k-point 218 :   0.4750 0.4250 0.4250  plane waves:    1113
 k-point 219 :   0.4750 0.4750 0.4250  plane waves:    1099
 k-point 220 :   0.4750 0.4750 0.4750  plane waves:    1088

 maximum and minimum number of plane-waves per node :      1159     1088

 maximum number of plane-waves:      1159
 maximum index in each direction: 
   IXMAX=    6   IYMAX=    6   IZMAX=    6
   IXMIN=   -6   IYMIN=   -6   IZMIN=   -6


 serial   3D FFT for wavefunctions
 parallel 3D FFT for charge:
    minimum data exchange during FFTs selected (reduces bandwidth)


 total amount of memory used by VASP MPI-rank0    37611. kBytes
=======================================================================

   base      :      30000. kBytes
   nonlr-proj:       1323. kBytes
   fftplans  :        531. kBytes
   grid      :       1507. kBytes
   one-center:         12. kBytes
   wavefun   :       4238. kBytes

     INWAV:  cpu time      0.0001: real time      0.0001
 Broyden mixing: mesh for mixing (old mesh)
   NGX = 13   NGY = 13   NGZ = 13
  (NGX  = 56   NGY  = 56   NGZ  = 56)
  gives a total of   2197 points

 initial charge density was supplied:
 charge density of overlapping atoms calculated
 number of electron      12.0000000 magnetization 
 keeping initial charge density in first step


--------------------------------------------------------------------------------------------------------


 Maximum index for non-local projection operator         1882
 Maximum index for augmentation-charges          795 (set IRDMAX)


--------------------------------------------------------------------------------------------------------


 First call to EWALD:  gamma=   0.446
 Maximum number of real-space cells 3x 3x 3
 Maximum number of reciprocal cells 3x 3x 3

    FEWALD:  cpu time      0.0021: real time      0.0021


--------------------------------------- Ionic step        1  -------------------------------------------




--------------------------------------- Iteration      1(   1)  ---------------------------------------


    POTLOK:  cpu time      0.0389: real time      0.0190
    SETDIJ:  cpu time      0.0068: real time      0.0028
     EDDAV:  cpu time     10.7459: real time      5.3850
       DOS:  cpu time      0.0045: real time      0.0027
    --------------------------------------------
      LOOP:  cpu time     10.7962: real time      5.4095

 eigenvalue-minimisations  :  6230
 total energy-change (2. order) :-0.1927968E+01  (-0.3902745E+03)
 number of electron      12.0000000 magnetization 
 augmentation part       12.0000000 magnetization 

 Free energy of the ion-electron system (eV)
  ---------------------------------------------------
  alpha Z        PSCENC =        -0.85858426
  Ewald energy   TEWEN  =      -299.30503986
  -Hartree energ DENC   =        -0.33771062
  -exchange      EXHF   =         0.00000000
  -V(xc)+E(xc)   XCENC  =      -104.57345307
  PAW double counting   =       264.80062850     -136.98248303
  entropy T*S    EENTRO =         0.00119285
  eigenvalues    EBANDS =        61.17486468
  atomic energy  EATOM  =       214.15261729
  Solvation  Ediel_sol  =         0.00000000
  ---------------------------------------------------
  free energy    TOTEN  =        -1.92796751 eV

  energy without entropy =       -1.92916036  energy(sigma->0) =       -1.92836513


--------------------------------------------------------------------------------------------------------




--------------------------------------- Iteration      1(   2)  ---------------------------------------


[...]

 k-point   199 :       0.4750    0.4250    0.2750
  band No.  band energies     occupation 
      1       1.5083      2.00000
      2       1.9611      2.00000
      3       2.8606      2.00000
      4       3.3059      2.00000
      5       5.5633      2.00000
      6       6.0015      2.00000
      7       6.8799      2.00000
      8       7.3188      2.00000
      9      15.2651      0.00000
     10      15.6642      0.00000
     11      16.4689      0.00000
     12      16.8768      0.00000
     13      17.7138      0.00000
     14      17.9535      0.00000

 k-point   200 :       0.4750    0.4750    0.2750
  band No.  band energies     occupation 
      1       1.9160      2.00000
      2       2.3671      2.00000
      3       2.3671      2.00000
      4       2.8159      2.00000
      5       5.9576      2.00000
      6       6.3970      2.00000
      7       6.3970      2.00000
      8       6.8364      2.00000
      9      15.6386      0.00000
     10      16.0420      0.00000
     11      16.0420      0.00000
     12      16.4475      0.00000
     13      18.6253      0.00000
     14      18.7174      0.00000

 k-point   201 :       0.3250    0.3250    0.3250
  band No.  band energies     occupation 
      1       0.0015      2.00000
      2       3.1719      2.00000
      3       3.1719      2.00000
      4       3.1719      2.00000
      5       6.3095      2.00000
      6       6.3095      2.00000
      7       6.3095      2.00000
      8       9.3687     -0.00000
      9      14.7220      0.00000
     10      14.7220      0.00000
     11      14.7220      0.00000
     12      16.9364      0.00000
     13      16.9364      0.00000
     14      16.9364      0.00000

 k-point   202 :       0.3750    0.3250    0.3250
  band No.  band energies     occupation 
      1       0.3226      2.00000
      2       2.5911      2.00000
      3       3.4822      2.00000
      4       3.4822      2.00000
      5       5.7420      2.00000
      6       5.7420      2.00000
      7       6.6167      2.00000
      8       8.8053     -0.06720
      9      15.0091      0.00000
     10      15.0091      0.00000
     11      15.8440      0.00000
     12      16.9042      0.00000
     13      16.9042      0.00000
     14      17.2148      0.00000

 k-point   203 :       0.4250    0.3250    0.3250
  band No.  band energies     occupation 
      1       0.6886      2.00000
      2       2.0511      2.00000
      3       3.8308      2.00000
      4       3.8308      2.00000
      5       5.2214      2.00000
      6       5.2214      2.00000
      7       6.9682      2.00000
      8       8.2827      2.05612
      9      15.3171      0.00000
     10      15.3171      0.00000
     11      16.5905      0.00000
     12      16.5905      0.00000
     13      16.9903      0.00000
     14      17.5331      0.00000

 k-point   204 :       0.4750    0.3250    0.3250
  band No.  band energies     occupation 
      1       1.0991      2.00000
      2       1.5535      2.00000
      3       4.1901      2.00000
      4       4.1901      2.00000
      5       4.7760      2.00000
      6       4.7760      2.00000
      7       7.3635      2.00000
      8       7.8018      2.00000
      9      15.5988      0.00000
     10      15.5988      0.00000
     11      16.2778      0.00000
     12      16.2778      0.00000
     13      17.8913      0.00000
     14      18.1777      0.00000

 k-point   205 :       0.3750    0.3750    0.3250
  band No.  band energies     occupation 
      1       0.6429      2.00000
      2       2.9047      2.00000
      3       2.9047      2.00000
      4       3.7864      2.00000
      5       5.1778      2.00000
      6       6.0478      2.00000
      7       6.0478      2.00000
      8       8.2404      2.03691
      9      15.3072      0.00000
     10      16.1181      0.00000
     11      16.1181      0.00000
     12      17.1933      0.00000
     13      17.1933      0.00000
     14      17.4975      0.00000

 k-point   206 :       0.4250    0.3750    0.3250
  band No.  band energies     occupation 
      1       1.0081      2.00000
      2       2.3668      2.00000
      3       3.2606      2.00000
      4       4.1025      2.00000
      5       4.6872      2.00000
      6       5.5220      2.00000
      7       6.3994      2.00000
      8       7.7165      2.00000
      9      15.6323      0.00000
     10      16.3637      0.00000
     11      16.9353      0.00000
     12      17.2054      0.00000
     13      17.5094      0.00000
     14      17.5654      0.00000

 k-point   207 :       0.4750    0.3750    0.3250
  band No.  band energies     occupation 
      1       1.4175      2.00000
      2       1.8707      2.00000
      3       3.6548      2.00000
      4       4.0598      2.00000
      5       4.6414      2.00000
      6       5.0440      2.00000
      7       6.7952      2.00000
      8       7.2345      2.00000
      9      15.9781      0.00000
     10      16.3044      0.00000
     11      16.9472      0.00000
     12      17.2362      0.00000
     13      17.8155      0.00000
     14      18.2327      0.00000

 k-point   208 :       0.4250    0.4250    0.3250
  band No.  band energies     occupation 
      1       1.3721      2.00000
      2       2.7260      2.00000
      3       2.7260      2.00000
      4       4.0163      2.00000
      5       4.5964      2.00000
      6       5.8725      2.00000
      7       5.8725      2.00000
      8       7.1914      2.00000
      9      15.9665      0.00000
     10      17.0641      0.00000
     11      17.0641      0.00000
     12      17.6793      0.00000
     13      17.6795      0.00000
     14      18.1566      0.00000

 k-point   209 :       0.4750    0.4250    0.3250
  band No.  band energies     occupation 
      1       1.7803      2.00000
      2       2.2319      2.00000
      3       3.1273      2.00000
      4       3.5666      2.00000
      5       4.9551      2.00000
      6       5.3896      2.00000
      7       6.2685      2.00000
      8       6.7084      2.00000
      9      16.3260      0.00000
     10      16.7031      0.00000
     11      17.4718      0.00000
     12      17.8714      0.00000
     13      17.9564      0.00000
     14      18.1930      0.00000

 k-point   210 :       0.4750    0.4750    0.3250
  band No.  band energies     occupation 
      1       2.1869      2.00000
      2       2.6365      2.00000
      3       2.6365      2.00000
      4       3.0828      2.00000
      5       5.3454      2.00000
      6       5.7846      2.00000
      7       5.7846      2.00000
      8       6.2248      2.00000
      9      16.6922      0.00000
     10      17.0793      0.00000
     11      17.0793      0.00000
     12      17.4716      0.00000
     13      18.8711      0.00000
     14      18.9523      0.00000

 k-point   211 :       0.3750    0.3750    0.3750
  band No.  band energies     occupation 
      1       0.9625      2.00000
      2       3.2159      2.00000
      3       3.2159      2.00000
      4       3.2159      2.00000
      5       5.4786      2.00000
      6       5.4786      2.00000
      7       5.4786      2.00000
      8       7.6741      2.00000
      9      16.4181      0.00000
     10      16.4181      0.00000
     11      16.4181      0.00000
     12      17.7762      0.00000
     13      17.7762      0.00000
     14      17.7762      0.00000

 k-point   212 :       0.4250    0.3750    0.3750
  band No.  band energies     occupation 
      1       1.3267      2.00000
      2       2.6811      2.00000
      3       3.5660      2.00000
      4       3.5660      2.00000
      5       4.9563      2.00000
      6       4.9563      2.00000
      7       5.8293      2.00000
      8       7.1488      2.00000
      9      16.7285      0.00000
     10      16.7285      0.00000
     11      17.5478      0.00000
     12      17.7947      0.00000
     13      17.7947      0.00000
     14      18.0950      0.00000

 k-point   213 :       0.4750    0.3750    0.3750
  band No.  band energies     occupation 
      1       1.7351      2.00000
      2       2.1868      2.00000
      3       3.9283      2.00000
      4       3.9283      2.00000
      5       4.5076      2.00000
      6       4.5076      2.00000
      7       6.2255      2.00000
      8       6.6656      2.00000
      9      17.0176      0.00000
     10      17.0176      0.00000
     11      17.5610      0.00000
     12      17.5610      0.00000
     13      18.4564      0.00000
     14      18.6821      0.00000

 k-point   214 :       0.4250    0.4250    0.3750
  band No.  band energies     occupation 
      1       1.6898      2.00000
      2       3.0379      2.00000
      3       3.0379      2.00000
      4       3.8845      2.00000
      5       4.4628      2.00000
      6       5.3023      2.00000
      7       5.3023      2.00000
      8       6.6223      2.00000
      9      17.0599      0.00000
     10      17.8051      0.00000
     11      17.8051      0.00000
     12      18.1503      0.00000
     13      18.1505      0.00000
     14      18.4189      0.00000

 k-point   215 :       0.4750    0.4250    0.3750
  band No.  band energies     occupation 
      1       2.0967      2.00000
      2       2.5467      2.00000
      3       3.4333      2.00000
      4       3.8411      2.00000
      5       4.4174      2.00000
      6       4.8229      2.00000
      7       5.6977      2.00000
      8       6.1383      2.00000
      9      17.4002      0.00000
     10      17.7228      0.00000
     11      18.2513      0.00000
     12      18.4218      0.00000
     13      18.4737      0.00000
     14      18.8307      0.00000

 k-point   216 :       0.4750    0.4750    0.3750
  band No.  band energies     occupation 
      1       2.5018      2.00000
      2       2.9487      2.00000
      3       2.9487      2.00000
      4       3.3891      2.00000
      5       4.7783      2.00000
      6       5.2139      2.00000
      7       5.2139      2.00000
      8       5.6538      2.00000
      9      17.7566      0.00000
     10      18.1125      0.00000
     11      18.1125      0.00000
     12      18.4837      0.00000
     13      19.1446      0.00000
     14      19.2211      0.00000

 k-point   217 :       0.4250    0.4250    0.4250
  band No.  band energies     occupation 
      1       2.0516      2.00000
      2       3.3889      2.00000
      3       3.3889      2.00000
      4       3.3889      2.00000
      5       4.7787      2.00000
      6       4.7787      2.00000
      7       4.7787      2.00000
      8       6.0948      2.00000
      9      18.1610      0.00000
     10      18.1611      0.00000
     11      18.1611      0.00000
     12      18.7370      0.00000
     13      18.7370      0.00000
     14      18.7371      0.00000

 k-point   218 :       0.4750    0.4250    0.4250
  band No.  band energies     occupation 
      1       2.4569      2.00000
      2       2.9040      2.00000
      3       3.7535      2.00000
      4       3.7535      2.00000
      5       4.3276      2.00000
      6       4.3276      2.00000
      7       5.1700      2.00000
      8       5.6101      2.00000
      9      18.4512      0.00000
     10      18.4512      0.00000
     11      18.8031      0.00000
     12      18.8035      0.00000
     13      19.0961      0.00000
     14      19.2436      0.00000

 k-point   219 :       0.4750    0.4750    0.4250
  band No.  band energies     occupation 
      1       2.8593      2.00000
      2       3.3002      2.00000
      3       3.3002      2.00000
      4       3.7098      2.00000
      5       4.2825      2.00000
      6       4.6897      2.00000
      7       4.6897      2.00000
      8       5.1258      2.00000
      9      18.8060      0.00000
     10      19.0883      0.00000
     11      19.0916      0.00000
     12      19.4340      0.00000
     13      19.4580      0.00000
     14      19.5147      0.00000

 k-point   220 :       0.4750    0.4750    0.4750
  band No.  band energies     occupation 
      1       3.2558      2.00000
      2       3.6660      2.00000
      3       3.6660      2.00000
      4       3.6660      2.00000
      5       4.2374      2.00000
      6       4.2374      2.00000
      7       4.2374      2.00000
      8       4.6452      2.00000
      9      19.7840      0.00000
     10      19.7875      0.00000
     11      19.8041      0.00000
     12      19.8129      0.00000
     13      19.8358      0.00000
     14      20.1633      0.00000


--------------------------------------------------------------------------------------------------------


 soft charge-density along one line, spin component           1
         0         1         2         3         4         5         6         7         8         9
 total charge-density along one line

 pseudopotential strength for first ion, spin component:           1
  8.426  14.360   0.000   0.000  -0.000   0.000   0.000  -0.000
 14.360  24.472   0.000   0.000  -0.000   0.000   0.000  -0.000
  0.000   0.000   1.991   0.000  -0.000   5.734   0.000  -0.000
  0.000   0.000   0.000   1.991   0.000   0.000   5.734   0.000
 -0.000  -0.000  -0.000   0.000   1.991  -0.000   0.000   5.734
  0.000   0.000   5.734   0.000  -0.000  16.434   0.000  -0.000
  0.000   0.000   0.000   5.734   0.000   0.000  16.434   0.000
 -0.000  -0.000  -0.000   0.000   5.734  -0.000   0.000  16.434
 total augmentation occupancy for first ion, spin component:           1
  3.591  -0.929   0.000   0.000  -0.000   0.000  -0.000   0.000
 -0.929   0.306   0.000  -0.000   0.000   0.000  -0.000   0.000
  0.000   0.000   1.188   0.000  -0.000  -0.079  -0.000   0.000
  0.000  -0.000   0.000   1.188   0.000  -0.000  -0.079  -0.000
 -0.000   0.000  -0.000   0.000   1.188   0.000  -0.000  -0.079
  0.000   0.000  -0.079  -0.000   0.000   0.006   0.000  -0.000
 -0.000  -0.000  -0.000  -0.079  -0.000   0.000   0.006   0.000
  0.000   0.000   0.000  -0.000  -0.079  -0.000   0.000   0.006


------------------------ aborting loop because EDIFF is reached ----------------------------------------


    CHARGE:  cpu time      0.3704: real time      0.1871
    FORLOC:  cpu time      0.0005: real time      0.0005
    FORNL :  cpu time      2.3946: real time      1.2565
    STRESS:  cpu time      7.1415: real time      3.7563
    FORCOR:  cpu time      0.0332: real time      0.0173
    FORHAR:  cpu time      0.0092: real time      0.0053
    MIXING:  cpu time      0.0050: real time      0.0010
    OFIELD:  cpu time      0.0000: real time      0.0000

  FORCE on cell =-STRESS in cart. coord.  units (eV):
  Direction    XX          YY          ZZ          XY          YZ          ZX
  --------------------------------------------------------------------------------------
  Alpha Z    -0.85858    -0.85858    -0.85858
  Ewald     -99.76839   -99.76839   -99.76839    -0.00000     0.00000     0.00000
  Hartree     0.15243     0.15243     0.15243    -0.00000    -0.00000    -0.00000
  E(xc)     -34.85288   -34.85288   -34.85288     0.00000    -0.00000    -0.00000
  Local       2.27192     2.27192     2.27192    -0.00000     0.00000     0.00000
  n-local    75.31234    76.23090    78.48368     0.41448     1.28128     0.55945
  augment    -4.00736    -4.00736    -4.00736     0.00000     0.00000     0.00000
  Kinetic    59.10015    61.46068    65.89857     1.58571    -8.68843    -1.76523
  Fock        0.00000     0.00000     0.00000     0.00000     0.00000     0.00000
  -------------------------------------------------------------------------------------
  Total       1.76592     1.76592     1.76592     0.00000     0.00000     0.00000
  in kB      45.20209    45.20209    45.20209     0.00000     0.00000     0.00000
  external pressure =       45.20 kB  Pullay stress =        0.00 kB


 VOLUME and BASIS-vectors are now :
 -----------------------------------------------------------------------------
  energy-cutoff  :      400.00
  volume of cell :       62.59
      direct lattice vectors                 reciprocal lattice vectors
     3.970460030  0.000000000  0.000000000     0.251859984  0.000000000 -0.000000000
    -0.000000000  3.970460030  0.000000000     0.000000000  0.251859984  0.000000000
     0.000000000  0.000000000  3.970460030    -0.000000000 -0.000000000  0.251859984

  length of vectors
     3.970460030  3.970460030  3.970460030     0.251859984  0.251859984  0.251859984


 FORCES acting on ions
    electron-ion (+dipol)            ewald-force                    non-local-force                 convergence-correction
 -----------------------------------------------------------------------------------------------
   -.687E-15 -.103E-14 -.104E-14   -.112E-14 -.168E-14 -.206E-15   0.271E-25 -.556E-26 0.139E-25   0.825E-16 -.438E-16 -.187E-15
   -.885E-15 -.493E-14 -.512E-14   -.113E-14 0.915E-15 0.344E-15   -.343E-25 -.108E-25 -.142E-25   0.689E-16 0.466E-16 0.194E-15
   -.575E-14 -.106E-14 -.509E-13   0.124E-14 -.916E-15 0.351E-15   0.121E-25 -.606E-25 0.719E-25   -.462E-16 -.264E-16 0.213E-15
   -.652E-14 -.132E-13 0.144E-13   0.123E-14 0.168E-14 -.488E-15   0.496E-25 0.524E-25 0.283E-25   -.352E-16 0.446E-16 -.184E-15
 -----------------------------------------------------------------------------------------------
   -.138E-13 -.202E-13 -.427E-13   0.225E-15 -.311E-17 0.494E-18   0.545E-25 -.245E-25 0.998E-25   0.700E-16 0.209E-16 0.361E-16


 POSITION                                       TOTAL-FORCE (eV/Angst)
 -----------------------------------------------------------------------------------
      0.00000      0.00000      0.00000        -0.000000     -0.000000     -0.000000
     -0.00000      1.98523      1.98523        -0.000000      0.000000     -0.000000
      1.98523      0.00000      1.98523         0.000000      0.000000     -0.000000
      1.98523      1.98523      0.00000        -0.000000     -0.000000      0.000000
 -----------------------------------------------------------------------------------
    total drift:                               -0.000000     -0.000000     -0.000000


--------------------------------------------------------------------------------------------------------



  FREE ENERGIE OF THE ION-ELECTRON SYSTEM (eV)
  ---------------------------------------------------
  free  energy   TOTEN  =       -14.94185200 eV

  energy  without entropy=      -14.94364395  energy(sigma->0) =      -14.94244932



--------------------------------------------------------------------------------------------------------


    POTLOK:  cpu time      0.0422: real time      0.0222


--------------------------------------------------------------------------------------------------------




--------------------------------------------------------------------------------------------------------


  
 reached required accuracy - stopping structural energy minimisation
     LOOP+:  cpu time    123.1961: real time     63.3431
    4ORBIT:  cpu time      0.0000: real time      0.0000

 total amount of memory used by VASP MPI-rank0    37611. kBytes
=======================================================================

   base      :      30000. kBytes
   nonlr-proj:       1323. kBytes
   fftplans  :        531. kBytes
   grid      :       1507. kBytes
   one-center:         12. kBytes
   wavefun   :       4238. kBytes

  
  
 General timing and accounting informations for this job:
 ========================================================
  
                  Total CPU time used (sec):      126.301
                            User time (sec):      124.723
                          System time (sec):        1.578
                         Elapsed time (sec):       65.925
  
                   Maximum memory used (kb):       60212.
                   Average memory used (kb):          N/A
  
                          Minor page faults:        29422
                          Major page faults:           21
                 Voluntary context switches:         2037
