<?xml version="1.0" encoding="ISO-8859-1"?>
<modeling>
 <generator>
  <i name="program" type="string">vasp </i>
  <i name="version" type="string">6.4.2  </i>
  <i name="subversion" type="string">20Jul23 (build Apr 22 2024 22:35:45) complex                          parallel </i>
  <i name="platform" type="string">LinuxGNU </i>
  <i name="date" type="string">2024 05 26 </i>
  <i name="time" type="string">15:48:08 </i>
 </generator>
 <incar>
  <i type="string" name="SYSTEM">Al fcc relaxation</i>
  <i type="string" name="PREC">Accurate</i>
  <i type="string" name="ALGO">Fast</i>
  <i type="int" name="NELM">    60</i>
  <i type="int" name="NELMIN">     4</i>
  <i type="int" name="IBRION">     2</i>
  <i name="EDIFF">      0.00000100</i>
  <i type="int" name="NSW">   100</i>
  <i type="int" name="ISIF">     4</i>
  <i name="ENCUT">    400.00000000</i>
  <i type="string" name="LREAL">Auto</i>
  <i type="int" name="ISMEAR">     1</i>
  <i name="SIGMA">      0.20000000</i>
  <i name="KSPACING">      0.08000000</i>
  <i type="logical" name="LWAVE"> F  </i>
  <i type="logical" name="LCHARG"> F  </i>
 </incar>
 <primitive_cell>
  <structure name="primitive_cell" >
   <crystal>
    <varray name="basis" >
     <v>       1.98523002      -1.98523002       0.00000000 </v>
     <v>       1.98523002       0.00000000       1.98523002 </v>
     <v>       0.00000000      -1.98523002       1.98523002 </v>
    </varray>
    <i name="volume">     15.64813175 </i>
    <varray name="rec_basis" >
     <v>       0.25185998      -0.25185998      -0.25185998 </v>
     <v>       0.25185998       0.25185998       0.25185998 </v>
     <v>      -0.25185998      -0.25185998       0.25185998 </v>
    </varray>
   </crystal>
   <varray name="positions" >
    <v>       0.00000000       0.00000000       0.00000000 </v>
   </varray>
  </structure>
  <varray name="primitive_index" >
   <v type="int" >        1 </v>
  </varray>
 </primitive_cell>
 <kpoints>
  <generation param="Monkhorst-Pack">
   <v type="int" name="divisions">      20       20       20 </v>
   <v name="usershift">      0.00000000       0.00000000       0.00000000 </v>
   <v name="genvec1">      0.05000000      -0.00000000       0.00000000 </v>
   <v name="genvec2">      0.00000000       0.05000000       0.00000000 </v>
   <v name="genvec3">      0.00000000       0.00000000       0.05000000 </v>
   <v name="shift">      0.50000000       0.50000000       0.50000000 </v>
  </generation>
  <varray name="kpointlist" >
   <v>       0.02500000       0.02500000       0.02500000 </v>
   <v>       0.07500000       0.02500000       0.02500000 </v>
   <v>       0.12500000       0.02500000       0.02500000 </v>
   <v>       0.17500000       0.02500000       0.02500000 </v>
   <v>       0.22500000       0.02500000       0.02500000 </v>
   <v>       0.27500000       0.02500000       0.02500000 </v>
   <v>       0.32500000       0.02500000       0.02500000 </v>
   <v>       0.37500000       0.02500000       0.02500000 </v>
   <v>       0.42500000       0.02500000       0.02500000 </v>
   <v>       0.47500000       0.02500000       0.02500000 </v>
   <v>       0.07500000       0.07500000       0.02500000 </v>
   <v>       0.12500000       0.07500000       0.02500000 </v>
   <v>       0.17500000       0.07500000       0.02500000 </v>
   <v>       0.22500000       0.07500000       0.02500000 </v>
   <v>       0.27500000       0.07500000       0.02500000 </v>
   <v>       0.32500000       0.07500000       0.02500000 </v>
   <v>       0.37500000       0.07500000       0.02500000 </v>
   <v>       0.42500000       0.07500000       0.02500000 </v>
   <v>       0.47500000       0.07500000       0.02500000 </v>
   <v>       0.12500000       0.12500000       0.02500000 </v>
   <v>       0.17500000       0.12500000       0.02500000 </v>
   <v>       0.22500000       0.12500000       0.02500000 </v>
   <v>       0.27500000       0.12500000       0.02500000 </v>
   <v>       0.32500000       0.12500000       0.02500000 </v>
   <v>       0.37500000       0.12500000       0.02500000 </v>
   <v>       0.42500000       0.12500000       0.02500000 </v>
   <v>       0.47500000       0.12500000       0.02500000 </v>
   <v>       0.17500000       0.17500000       0.02500000 </v>
   <v>       0.22500000       0.17500000       0.02500000 </v>
   <v>       0.27500000       0.17500000       0.02500000 </v>
   <v>       0.32500000       0.17500000       0.02500000 </v>
   <v>       0.37500000       0.17500000       0.02500000 </v>
   <v>       0.42500000       0.17500000       0.02500000 </v>
   <v>       0.47500000       0.17500000       0.02500000 </v>
   <v>       0.22500000       0.22500000       0.02500000 </v>
   <v>       0.27500000       0.22500000       0.02500000 </v>
   <v>       0.32500000       0.22500000       0.02500000 </v>
   <v>       0.37500000       0.22500000       0.02500000 </v>
   <v>       0.42500000       0.22500000       0.02500000 </v>
   <v>       0.47500000       0.22500000       0.02500000 </v>
   <v>       0.27500000       0.27500000       0.02500000 </v>
   <v>       0.32500000       0.27500000       0.02500000 </v>
   <v>       0.37500000       0.27500000       0.02500000 </v>
   <v>       0.42500000       0.27500000       0.02500000 </v>
   <v>       0.47500000       0.27500000       0.02500000 </v>
   <v>       0.32500000       0.32500000       0.02500000 </v>
   <v>       0.37500000       0.32500000       0.02500000 </v>
   <v>       0.42500000       0.32500000       0.02500000 </v>
   <v>       0.47500000       0.32500000       0.02500000 </v>
   <v>       0.37500000       0.37500000       0.02500000 </v>
   <v>       0.42500000       0.37500000       0.02500000 </v>
   <v>       0.47500000       0.37500000       0.02500000 </v>
   <v>       0.42500000       0.42500000       0.02500000 </v>
   <v>       0.47500000       0.42500000       0.02500000 </v>
   <v>       0.47500000       0.47500000       0.02500000 </v>
   <v>       0.07500000       0.07500000       0.07500000 </v>
   <v>       0.12500000       0.07500000       0.07500000 </v>
   <v>       0.17500000       0.07500000       0.07500000 </v>
   <v>       0.22500000       0.07500000       0.07500000 </v>
   <v>       0.27500000       0.07500000       0.07500000 </v>
   <v>       0.32500000       0.07500000       0.07500000 </v>
   <v>       0.37500000       0.07500000       0.07500000 </v>
   <v>       0.42500000       0.07500000       0.07500000 </v>
   <v>       0.47500000       0.07500000       0.07500000 </v>
   <v>       0.12500000       0.12500000       0.07500000 </v>
   <v>       0.17500000       0.12500000       0.07500000 </v>
   <v>       0.22500000       0.12500000       0.07500000 </v>
   <v>       0.27500000       0.12500000       0.07500000 </v>
   <v>       0.32500000       0.12500000       0.07500000 </v>
   <v>       0.37500000       0.12500000       0.07500000 </v>
   <v>       0.42500000       0.12500000       0.07500000 </v>
   <v>       0.47500000       0.12500000       0.07500000 </v>
   <v>       0.17500000       0.17500000       0.07500000 </v>
   <v>       0.22500000       0.17500000       0.07500000 </v>
   <v>       0.27500000       0.17500000       0.07500000 </v>
   <v>       0.32500000       0.17500000       0.07500000 </v>
   <v>       0.37500000       0.17500000       0.07500000 </v>
   <v>       0.42500000       0.17500000       0.07500000 </v>
   <v>       0.47500000       0.17500000       0.07500000 </v>
   <v>       0.22500000       0.22500000       0.07500000 </v>
   <v>       0.27500000       0.22500000       0.07500000 </v>
   <v>       0.32500000       0.22500000       0.07500000 </v>
   <v>       0.37500000       0.22500000       0.07500000 </v>
   <v>       0.42500000       0.22500000       0.07500000 </v>
   <v>       0.47500000       0.22500000       0.07500000 </v>
   <v>       0.27500000       0.27500000       0.07500000 </v>
   <v>       0.32500000       0.27500000       0.07500000 </v>
   <v>       0.37500000       0.27500000       0.07500000 </v>
   <v>       0.42500000       0.27500000       0.07500000 </v>
   <v>       0.47500000       0.27500000       0.07500000 </v>
   <v>       0.32500000       0.32500000       0.07500000 </v>
   <v>       0.37500000       0.32500000       0.07500000 </v>
   <v>       0.42500000       0.32500000       0.07500000 </v>
   <v>       0.47500000       0.32500000       0.07500000 </v>
   <v>       0.37500000       0.37500000       0.07500000 </v>
   <v>       0.42500000       0.37500000       0.07500000 </v>
   <v>       0.47500000       0.37500000       0.07500000 </v>
   <v>       0.42500000       0.42500000       0.07500000 </v>
   <v>       0.47500000       0.42500000       0.07500000 </v>
   <v>       0.47500000       0.47500000       0.07500000 </v>
   <v>       0.12500000       0.12500000       0.12500000 </v>
   <v>       0.17500000       0.12500000       0.12500000 </v>
   <v>       0.22500000       0.12500000       0.12500000 </v>
   <v>       0.27500000       0.12500000       0.12500000 </v>
   <v>       0.32500000       0.12500000       0.12500000 </v>
   <v>       0.37500000       0.12500000       0.12500000 </v>
   <v>       0.42500000       0.12500000       0.12500000 </v>
   <v>       0.47500000       0.12500000       0.12500000 </v>
   <v>       0.17500000       0.17500000       0.12500000 </v>
   <v>       0.22500000       0.17500000       0.12500000 </v>
   <v>       0.27500000       0.17500000       0.12500000 </v>
   <v>       0.32500000       0.17500000       0.12500000 </v>
   <v>       0.37500000       0.17500000       0.12500000 </v>
   <v>       0.42500000       0.17500000       0.12500000 </v>
   <v>       0.47500000       0.17500000       0.12500000 </v>
   <v>       0.22500000       0.22500000       0.12500000 </v>
   <v>       0.27500000       0.22500000       0.12500000 </v>
   <v>       0.32500000       0.22500000       0.12500000 </v>
   <v>       0.37500000       0.22500000       0.12500000 </v>
   <v>       0.42500000       0.22500000       0.12500000 </v>
   <v>       0.47500000       0.22500000       0.12500000 </v>
   <v>       0.27500000       0.27500000       0.12500000 </v>
   <v>       0.32500000       0.27500000       0.12500000 </v>
   <v>       0.37500000       0.27500000       0.12500000 </v>
   <v>       0.42500000       0.27500000       0.12500000 </v>
   <v>       0.47500000       0.27500000       0.12500000 </v>
   <v>       0.32500000       0.32500000       0.12500000 </v>
   <v>       0.37500000       0.32500000       0.12500000 </v>
   <v>       0.42500000       0.32500000       0.12500000 </v>
   <v>       0.47500000       0.32500000       0.12500000 </v>
   <v>       0.37500000       0.37500000       0.12500000 </v>
   <v>       0.42500000       0.37500000       0.12500000 </v>
   <v>       0.47500000       0.37500000       0.12500000 </v>
   <v>       0.42500000       0.42500000       0.12500000 </v>
   <v>       0.47500000       0.42500000       0.12500000 </v>
   <v>       0.47500000       0.47500000       0.12500000 </v>
   <v>       0.17500000       0.17500000       0.17500000 </v>
   <v>       0.22500000       0.17500000       0.17500000 </v>
   <v>       0.27500000       0.17500000       0.17500000 </v>
   <v>       0.32500000       0.17500000       0.17500000 </v>
   <v>       0.37500000       0.17500000       0.17500000 </v>
   <v>       0.42500000       0.17500000       0.17500000 </v>
   <v>       0.47500000       0.17500000       0.17500000 </v>
   <v>       0.22500000       0.22500000       0.17500000 </v>
   <v>       0.27500000       0.22500000       0.17500000 </v>
   <v>       0.32500000       0.22500000       0.17500000 </v>
   <v>       0.37500000       0.22500000       0.17500000 </v>
   <v>       0.42500000       0.22500000       0.17500000 </v>
   <v>       0.47500000       0.22500000       0.17500000 </v>
   <v>       0.27500000       0.27500000       0.17500000 </v>
   <v>       0.32500000       0.27500000       0.17500000 </v>
   <v>       0.37500000       0.27500000       0.17500000 </v>
   <v>       0.42500000       0.27500000       0.17500000 </v>
   <v>       0.47500000       0.27500000       0.17500000 </v>
   <v>       0.32500000       0.32500000       0.17500000 </v>
   <v>       0.37500000       0.32500000       0.17500000 </v>
   <v>       0.42500000       0.32500000       0.17500000 </v>
   <v>       0.47500000       0.32500000       0.17500000 </v>
   <v>       0.37500000       0.37500000       0.17500000 </v>
   <v>       0.42500000       0.37500000       0.17500000 </v>
   <v>       0.47500000       0.37500000       0.17500000 </v>
   <v>       0.42500000       0.42500000       0.17500000 </v>
   <v>       0.47500000       0.42500000       0.17500000 </v>
   <v>       0.47500000       0.47500000       0.17500000 </v>
   <v>       0.22500000       0.22500000       0.22500000 </v>
   <v>       0.27500000       0.22500000       0.22500000 </v>
   <v>       0.32500000       0.22500000       0.22500000 </v>
   <v>       0.37500000       0.22500000       0.22500000 </v>
   <v>       0.42500000       0.22500000       0.22500000 </v>
   <v>       0.47500000       0.22500000       0.22500000 </v>
   <v>       0.27500000       0.27500000       0.22500000 </v>
   <v>       0.32500000       0.27500000       0.22500000 </v>
   <v>       0.37500000       0.27500000       0.22500000 </v>
   <v>       0.42500000       0.27500000       0.22500000 </v>
   <v>       0.47500000       0.27500000       0.22500000 </v>
   <v>       0.32500000       0.32500000       0.22500000 </v>
   <v>       0.37500000       0.32500000       0.22500000 </v>
   <v>       0.42500000       0.32500000       0.22500000 </v>
   <v>       0.47500000       0.32500000       0.22500000 </v>
   <v>       0.37500000       0.37500000       0.22500000 </v>
   <v>       0.42500000       0.37500000       0.22500000 </v>
   <v>       0.47500000       0.37500000       0.22500000 </v>
   <v>       0.42500000       0.42500000       0.22500000 </v>
   <v>       0.47500000       0.42500000       0.22500000 </v>
   <v>       0.47500000       0.47500000       0.22500000 </v>
   <v>       0.27500000       0.27500000       0.27500000 </v>
   <v>       0.32500000       0.27500000       0.27500000 </v>
   <v>       0.37500000       0.27500000       0.27500000 </v>
   <v>       0.42500000       0.27500000       0.27500000 </v>
   <v>       0.47500000       0.27500000       0.27500000 </v>
   <v>       0.32500000       0.32500000       0.27500000 </v>
   <v>       0.37500000       0.32500000       0.27500000 </v>
   <v>       0.42500000       0.32500000       0.27500000 </v>
   <v>       0.47500000       0.32500000       0.27500000 </v>
   <v>       0.37500000       0.37500000       0.27500000 </v>
   <v>       0.42500000       0.37500000       0.27500000 </v>
   <v>       0.47500000       0.37500000       0.27500000 </v>
   <v>       0.42500000       0.42500000       0.27500000 </v>
   <v>       0.47500000       0.42500000       0.27500000 </v>
   <v>       0.47500000       0.47500000       0.27500000 </v>
   <v>       0.32500000       0.32500000       0.32500000 </v>
   <v>       0.37500000       0.32500000       0.32500000 </v>
   <v>       0.42500000       0.32500000       0.32500000 </v>
   <v>       0.47500000       0.32500000       0.32500000 </v>
   <v>       0.37500000       0.37500000       0.32500000 </v>
   <v>       0.42500000       0.37500000       0.32500000 </v>
   <v>       0.47500000       0.37500000       0.32500000 </v>
   <v>       0.42500000       0.42500000       0.32500000 </v>
   <v>       0.47500000       0.42500000       0.32500000 </v>
   <v>       0.47500000       0.47500000       0.32500000 </v>
   <v>       0.37500000       0.37500000       0.37500000 </v>
   <v>       0.42500000       0.37500000       0.37500000 </v>
   <v>       0.47500000       0.37500000       0.37500000 </v>
   <v>       0.42500000       0.42500000       0.37500000 </v>
   <v>       0.47500000       0.42500000       0.37500000 </v>
   <v>       0.47500000       0.47500000       0.37500000 </v>
   <v>       0.42500000       0.42500000       0.42500000 </v>
   <v>       0.47500000       0.42500000       0.42500000 </v>
   <v>       0.47500000       0.47500000       0.42500000 </v>
   <v>       0.47500000       0.47500000       0.47500000 </v>
  </varray>
  <varray name="weights" >
   <v>       0.00100000 </v>
   <v>       0.00300000 </v>
   <v>       0.00300000 </v>
   <v>       0.00300000 </v>
   <v>       0.00300000 </v>
   <v>       0.00300000 </v>
   <v>       0.00300000 </v>
   <v>       0.00300000 </v>
   <v>       0.00300000 </v>
   <v>       0.00300000 </v>
   <v>       0.00300000 </v>
   <v>       0.00600000 </v>
   <v>       0.00600000 </v>
   <v>       0.00600000 </v>
   <v>       0.00600000 </v>
   <v>       0.00600000 </v>
   <v>       0.00600000 </v>
   <v>       0.00600000 </v>
   <v>       0.00600000 </v>
   <v>       0.00300000 </v>
   <v>       0.00600000 </v>
   <v>       0.00600000 </v>
   <v>       0.00600000 </v>
   <v>       0.00600000 </v>
   <v>       0.00600000 </v>
   <v>       0.00600000 </v>
   <v>       0.00600000 </v>
   <v>       0.00300000 </v>
   <v>       0.00600000 </v>
   <v>       0.00600000 </v>
   <v>       0.00600000 </v>
   <v>       0.00600000 </v>
   <v>       0.00600000 </v>
   <v>       0.00600000 </v>
   <v>       0.00300000 </v>
   <v>       0.00600000 </v>
   <v>       0.00600000 </v>
   <v>       0.00600000 </v>
   <v>       0.00600000 </v>
   <v>       0.00600000 </v>
   <v>       0.00300000 </v>
   <v>       0.00600000 </v>
   <v>       0.00600000 </v>
   <v>       0.00600000 </v>
   <v>       0.00600000 </v>
   <v>       0.00300000 </v>
   <v>       0.00600000 </v>
   <v>       0.00600000 </v>
   <v>       0.00600000 </v>
   <v>       0.00300000 </v>
   <v>       0.00600000 </v>
   <v>       0.00600000 </v>
   <v>       0.00300000 </v>
   <v>       0.00600000 </v>
   <v>       0.00300000 </v>
   <v>       0.00100000 </v>
   <v>       0.00300000 </v>
   <v>       0.00300000 </v>
   <v>       0.00300000 </v>
   <v>       0.00300000 </v>
   <v>       0.00300000 </v>
   <v>       0.00300000 </v>
   <v>       0.00300000 </v>
   <v>       0.00300000 </v>
   <v>       0.00300000 </v>
   <v>       0.00600000 </v>
   <v>       0.00600000 </v>
   <v>       0.00600000 </v>
   <v>       0.00600000 </v>
   <v>       0.00600000 </v>
   <v>       0.00600000 </v>
   <v>       0.00600000 </v>
   <v>       0.00300000 </v>
   <v>       0.00600000 </v>
   <v>       0.00600000 </v>
   <v>       0.00600000 </v>
   <v>       0.00600000 </v>
   <v>       0.00600000 </v>
   <v>       0.00600000 </v>
   <v>       0.00300000 </v>
   <v>       0.00600000 </v>
   <v>       0.00600000 </v>
   <v>       0.00600000 </v>
   <v>       0.00600000 </v>
   <v>       0.00600000 </v>
   <v>       0.00300000 </v>
   <v>       0.00600000 </v>
   <v>       0.00600000 </v>
   <v>       0.00600000 </v>
   <v>       0.00600000 </v>
   <v>       0.00300000 </v>
   <v>       0.00600000 </v>
   <v>       0.00600000 </v>
   <v>       0.00600000 </v>
   <v>       0.00300000 </v>
   <v>       0.00600000 </v>
   <v>       0.00600000 </v>
   <v>       0.00300000 </v>
   <v>       0.00600000 </v>
   <v>       0.00300000 </v>
   <v>       0.00100000 </v>
   <v>       0.00300000 </v>
   <v>       0.00300000 </v>
   <v>       0.00300000 </v>
   <v>       0.00300000 </v>
   <v>       0.00300000 </v>
   <v>       0.00300000 </v>
   <v>       0.00300000 </v>
   <v>       0.00300000 </v>
   <v>       0.00600000 </v>
   <v>       0.00600000 </v>
   <v>       0.00600000 </v>
   <v>       0.00600000 </v>
   <v>       0.00600000 </v>
   <v>       0.00600000 </v>
   <v>       0.00300000 </v>
   <v>       0.00600000 </v>
   <v>       0.00600000 </v>
   <v>       0.00600000 </v>
   <v>       0.00600000 </v>
   <v>       0.00600000 </v>
   <v>       0.00300000 </v>
   <v>       0.00600000 </v>
   <v>       0.00600000 </v>
   <v>       0.00600000 </v>
   <v>       0.00600000 </v>
   <v>       0.00300000 </v>
   <v>       0.00600000 </v>
   <v>       0.00600000 </v>
   <v>       0.00600000 </v>
   <v>       0.00300000 </v>
   <v>       0.00600000 </v>
   <v>       0.00600000 </v>
   <v>       0.00300000 </v>
   <v>       0.00600000 </v>
   <v>       0.00300000 </v>
   <v>       0.00100000 </v>
   <v>       0.00300000 </v>
   <v>       0.00300000 </v>
   <v>       0.00300000 </v>
   <v>       0.00300000 </v>
   <v>       0.00300000 </v>
   <v>       0.00300000 </v>
   <v>       0.00300000 </v>
   <v>       0.00600000 </v>
   <v>       0.00600000 </v>
   <v>       0.00600000 </v>
   <v>       0.00600000 </v>
   <v>       0.00600000 </v>
   <v>       0.00300000 </v>
   <v>       0.00600000 </v>
   <v>       0.00600000 </v>
   <v>       0.00600000 </v>
   <v>       0.00600000 </v>
   <v>       0.00300000 </v>
   <v>       0.00600000 </v>
   <v>       0.00600000 </v>
   <v>       0.00600000 </v>
   <v>       0.00300000 </v>
   <v>       0.00600000 </v>
   <v>       0.00600000 </v>
   <v>       0.00300000 </v>
   <v>       0.00600000 </v>
   <v>       0.00300000 </v>
   <v>       0.00100000 </v>
   <v>       0.00300000 </v>
   <v>       0.00300000 </v>
   <v>       0.00300000 </v>
   <v>       0.00300000 </v>
   <v>       0.00300000 </v>
   <v>       0.00300000 </v>
   <v>       0.00600000 </v>
   <v>       0.00600000 </v>
   <v>       0.00600000 </v>
   <v>       0.00600000 </v>
   <v>       0.00300000 </v>
   <v>       0.00600000 </v>
   <v>       0.00600000 </v>
   <v>       0.00600000 </v>
   <v>       0.00300000 </v>
   <v>       0.00600000 </v>
   <v>       0.00600000 </v>
   <v>       0.00300000 </v>
   <v>       0.00600000 </v>
   <v>       0.00300000 </v>
   <v>       0.00100000 </v>
   <v>       0.00300000 </v>
   <v>       0.00300000 </v>
   <v>       0.00300000 </v>
   <v>       0.00300000 </v>
   <v>       0.00300000 </v>
   <v>       0.00600000 </v>
   <v>       0.00600000 </v>
   <v>       0.00600000 </v>
   <v>       0.00300000 </v>
   <v>       0.00600000 </v>
   <v>       0.00600000 </v>
   <v>       0.00300000 </v>
   <v>       0.00600000 </v>
   <v>       0.00300000 </v>
   <v>       0.00100000 </v>
   <v>       0.00300000 </v>
   <v>       0.00300000 </v>
   <v>       0.00300000 </v>
   <v>       0.00300000 </v>
   <v>       0.00600000 </v>
   <v>       0.00600000 </v>
   <v>       0.00300000 </v>
   <v>       0.00600000 </v>
   <v>       0.00300000 </v>
   <v>       0.00100000 </v>
   <v>       0.00300000 </v>
   <v>       0.00300000 </v>
   <v>       0.00300000 </v>
   <v>       0.00600000 </v>
   <v>       0.00300000 </v>
   <v>       0.00100000 </v>
   <v>       0.00300000 </v>
   <v>       0.00300000 </v>
   <v>       0.00100000 </v>
  </varray>
 </kpoints>
 <parameters>
  <separator name="general" >
   <i type="string" name="SYSTEM">Al fcc relaxation</i>
   <i type="logical" name="LCOMPAT"> F  </i>
  </separator>
  <separator name="electronic" >
   <i type="string" name="PREC">accura</i>
   <i name="ENMAX">    400.00000000</i>
   <i name="ENAUG">    291.05200000</i>
   <i name="EDIFF">      0.00000100</i>
   <i type="int" name="IALGO">    68</i>
   <i type="int" name="IWAVPR">    11</i>
   <i type="int" name="NBANDS">    14</i>
   <i type="int" name="NBANDSLOW">    -1</i>
   <i type="int" name="NBANDSHIGH">    -1</i>
   <i name="NELECT">     12.00000000</i>
   <i type="int" name="TURBO">     0</i>
   <i type="int" name="IRESTART">     0</i>
   <i type="int" name="NREBOOT">     0</i>
   <i type="int" name="NMIN">     0</i>
   <i name="EREF">      0.00000000</i>
   <separator name="electronic smearing" >
    <i type="int" name="ISMEAR">     1</i>
    <i name="SIGMA">      0.20000000</i>
    <i name="KSPACING">      0.08000000</i>
    <i type="logical" name="KGAMMA"> T  </i>
    <i type="logical" name="KBLOWUP"> T  </i>
   </separator>
   <separator name="electronic projectors" >
    <i type="logical" name="LREAL"> T  </i>
    <v name="ROPT">     -0.00025000</v>
    <i type="int" name="LMAXPAW">  -100</i>
    <i type="int" name="LMAXMIX">     2</i>
    <i type="logical" name="NLSPLINE"> F  </i>
   </separator>
   <separator name="electronic startup" >
    <i type="int" name="ISTART">     0</i>
    <i type="int" name="ICHARG">     2</i>
    <i type="int" name="INIWAV">     1</i>
   </separator>
   <separator name="electronic spin" >
    <i type="int" name="ISPIN">     1</i>
    <i type="logical" name="LNONCOLLINEAR"> F  </i>
    <v name="MAGMOM">      1.00000000      1.00000000      1.00000000      1.00000000</v>
    <i name="NUPDOWN">     -1.00000000</i>
    <i type="logical" name="LSORBIT"> F  </i>
    <v name="SAXIS">      0.00000000      0.00000000      1.00000000</v>
    <i type="logical" name="LSPIRAL"> F  </i>
    <v name="QSPIRAL">      0.00000000      0.00000000      0.00000000</v>
    <i type="logical" name="LZEROZ"> F  </i>
   </separator>
   <separator name="electronic exchange-correlation" >
    <i type="logical" name="LASPH"> F  </i>
    <i type="logical" name="LMETAGGA"> F  </i>
   </separator>
   <separator name="electronic convergence" >
    <i type="int" name="NELM">    60</i>
    <i type="int" name="NELMDL">    -5</i>
    <i type="int" name="NELMIN">     4</i>
    <i name="ENINI">    400.00000000</i>
    <separator name="electronic convergence detail" >
     <i type="logical" name="LDIAG"> T  </i>
     <i type="logical" name="LSUBROT"> F  </i>
     <i name="WEIMIN">      0.00100000</i>
     <i name="EBREAK">      0.00000002</i>
     <i name="DEPER">      0.30000000</i>
     <i type="int" name="NRMM">     4</i>
     <i name="TIME">      0.40000000</i>
    </separator>
   </separator>
   <separator name="electronic mixer" >
    <i name="AMIX">      0.40000000</i>
    <i name="BMIX">      1.00000000</i>
    <i name="AMIN">      0.10000000</i>
    <i name="AMIX_MAG">      1.60000000</i>
    <i name="BMIX_MAG">      1.00000000</i>
    <separator name="electronic mixer details" >
     <i type="int" name="IMIX">     4</i>
     <i type="logical" name="MIXFIRST"> F  </i>
     <i type="int" name="MAXMIX">   -45</i>
     <i name="WC">    100.00000000</i>
     <i type="int" name="INIMIX">     1</i>
     <i type="int" name="MIXPRE">     1</i>
     <i type="int" name="MREMOVE">     5</i>
    </separator>
   </separator>
   <separator name="electronic dipolcorrection" >
    <i type="logical" name="LDIPOL"> F  </i>
    <i type="logical" name="LMONO"> F  </i>
    <i type="int" name="IDIPOL">     0</i>
    <i name="EPSILON">      1.00000000</i>
    <v name="DIPOL">   -100.00000000   -100.00000000   -100.00000000</v>
    <i name="EFIELD">      0.00000000</i>
   </separator>
  </separator>
  <separator name="grids" >
   <i type="int" name="NGX">    28</i>
   <i type="int" name="NGY">    28</i>
   <i type="int" name="NGZ">    28</i>
   <i type="int" name="NGXF">    56</i>
   <i type="int" name="NGYF">    56</i>
   <i type="int" name="NGZF">    56</i>
   <i type="logical" name="ADDGRID"> F  </i>
  </separator>
  <separator name="ionic" >
   <i type="int" name="NSW">   100</i>
   <i type="int" name="IBRION">     2</i>
   <i type="int" name="MDALGO">     0</i>
   <i type="int" name="ISIF">     4</i>
   <i name="PSTRESS">      0.00000000</i>
   <i name="EDIFFG">      0.00001000</i>
   <i type="int" name="NFREE">     1</i>
   <i name="POTIM">      0.50000000</i>
   <i name="SMASS">     -3.00000000</i>
   <i name="SCALEE">      1.00000000</i>
  </separator>
  <separator name="ionic md" >
   <i name="TEBEG">      0.00010000</i>
   <i name="TEEND">      0.00010000</i>
   <i type="int" name="NBLOCK">     1</i>
   <i type="int" name="KBLOCK">   100</i>
   <i type="int" name="NPACO">   256</i>
   <i name="APACO">     10.00000000</i>
  </separator>
  <separator name="symmetry" >
   <i type="int" name="ISYM">     2</i>
   <i name="SYMPREC">      0.00001000</i>
  </separator>
  <separator name="dos" >
   <i type="int" name="LORBIT">     0</i>
   <v name="RWIGS">     -1.00000000</v>
   <i type="int" name="NEDOS">   301</i>
   <i name="EMIN">     10.00000000</i>
   <i name="EMAX">    -10.00000000</i>
   <i name="EFERMI">      0.00000000</i>
  </separator>
  <separator name="writing" >
   <i type="int" name="NWRITE">     2</i>
   <i type="logical" name="LWAVE"> F  </i>
   <i type="logical" name="LDOWNSAMPLE"> F  </i>
   <i type="logical" name="LCHARG"> F  </i>
   <i type="logical" name="LPARD"> F  </i>
   <i type="logical" name="LVTOT"> F  </i>
   <i type="logical" name="LVHAR"> F  </i>
   <i type="logical" name="LELF"> F  </i>
   <i type="logical" name="LOPTICS"> F  </i>
   <v name="STM">      0.00000000      0.00000000      0.00000000      0.00000000      0.00000000      0.00000000      0.00000000</v>
  </separator>
  <separator name="performance" >
   <i type="int" name="NPAR">    14</i>
   <i type="int" name="NSIM">     4</i>
   <i type="int" name="NBLK">    -1</i>
   <i type="logical" name="LPLANE"> T  </i>
   <i type="logical" name="LSCALAPACK"> T  </i>
   <i type="logical" name="LSCAAWARE"> F  </i>
   <i type="logical" name="LSCALU"> F  </i>
   <i type="logical" name="LASYNC"> F  </i>
   <i type="logical" name="LORBITALREAL"> F  </i>
  </separator>
  <separator name="miscellaneous" >
   <i type="int" name="IDIOT">     3</i>
   <i type="int" name="PHON_NSTRUCT">    -1</i>
   <i type="logical" name="LMUSIC"> F  </i>
   <v name="POMASS">     26.98100000</v>
   <v name="DARWINR">      0.00000000</v>
   <v name="DARWINV">      1.00000000</v>
   <i type="logical" name="LCORR"> T  </i>
  </separator>
  <i type="logical" name="GGA_COMPAT"> T  </i>
  <i type="logical" name="LBERRY"> F  </i>
  <i type="int" name="ICORELEVEL">     0</i>
  <i type="logical" name="LDAU"> F  </i>
  <i type="int" name="I_CONSTRAINED_M">     0</i>
  <separator name="electronic exchange-correlation" >
   <i type="string" name="GGA">--</i>
   <i type="int" name="VOSKOWN">     0</i>
   <i type="logical" name="LHFCALC"> F  </i>
   <i type="string" name="PRECFOCK"></i>
   <i type="logical" name="LSYMGRAD"> F  </i>
   <i type="logical" name="LHFONE"> F  </i>
   <i type="logical" name="LRHFCALC"> F  </i>
   <i type="logical" name="LTHOMAS"> F  </i>
   <i type="logical" name="LMODELHF"> F  </i>
   <i type="logical" name="LFOCKACE"> F  </i>
   <i name="ENCUT4O">     -1.00000000</i>
   <i type="int" name="EXXOEP">     0</i>
   <i type="int" name="FOURORBIT">     0</i>
   <i name="AEXX">      0.00000000</i>
   <i name="HFALPHA">      0.00000000</i>
   <i name="MCALPHA">      0.00000000</i>
   <i name="ALDAX">      1.00000000</i>
   <i name="AGGAX">      1.00000000</i>
   <i name="ALDAC">      1.00000000</i>
   <i name="AGGAC">      1.00000000</i>
   <i type="int" name="NKREDX">     1</i>
   <i type="int" name="NKREDY">     1</i>
   <i type="int" name="NKREDZ">     1</i>
   <i type="logical" name="SHIFTRED"> F  </i>
   <i type="logical" name="ODDONLY"> F  </i>
   <i type="logical" name="EVENONLY"> F  </i>
   <i type="int" name="LMAXFOCK">     0</i>
   <i type="int" name="NMAXFOCKAE">     0</i>
   <i type="logical" name="LFOCKAEDFT"> F  </i>
   <i name="HFSCREEN">      0.00000000</i>
   <i name="HFSCREENC">      0.00000000</i>
   <i type="int" name="NBANDSGWLOW">     0</i>
  </separator>
  <separator name="vdW DFT" >
   <i type="logical" name="LUSE_VDW"> F  </i>
   <i type="int" name="IVDW_NL">     1</i>
   <i type="logical" name="LSPIN_VDW"> F  </i>
   <i name="Zab_VDW">     -0.84910000</i>
   <i name="PARAM1">      0.12340000</i>
   <i name="PARAM2">      1.00000000</i>
   <i name="PARAM3">      0.00000000</i>
  </separator>
  <separator name="model GW" >
   <i type="int" name="MODEL_GW">     0</i>
   <i name="MODEL_EPS0">      9.38887905</i>
   <i name="MODEL_ALPHA">      1.00000000</i>
  </separator>
  <separator name="linear response parameters" >
   <i type="logical" name="LEPSILON"> F  </i>
   <i type="logical" name="LRPA"> F  </i>
   <i type="logical" name="LNABLA"> F  </i>
   <i type="logical" name="LVEL"> F  </i>
   <i name="CSHIFT">      0.10000000</i>
   <i name="OMEGAMAX">     -1.00000000</i>
   <i name="DEG_THRESHOLD">      0.00200000</i>
   <i name="RTIME">     -0.10000000</i>
   <i name="WPLASMAI">      0.00000000</i>
   <v name="DFIELD">      0.00000000      0.00000000      0.00000000</v>
   <v name="WPLASMA">      0.00000000      0.00000000      0.00000000      0.00000000      0.00000000      0.00000000      0.00000000      0.00000000      0.00000000</v>
  </separator>
  <separator name="orbital magnetization" >
   <i type="logical" name="NUCIND"> F  </i>
   <v name="MAGPOS">      0.00000000      0.00000000      0.00000000</v>
   <i type="logical" name="LNICSALL"> T  </i>
   <i type="logical" name="ORBITALMAG"> F  </i>
   <i type="logical" name="LMAGBLOCH"> F  </i>
   <i type="logical" name="LCHIMAG"> F  </i>
   <i type="logical" name="LGAUGE"> T  </i>
   <i type="int" name="MAGATOM">     0</i>
   <v name="MAGDIPOL">      0.00000000      0.00000000      0.00000000</v>
   <v name="AVECCONST">      0.00000000      0.00000000      0.00000000</v>
  </separator>
  <separator name="response functions" >
   <i type="logical" name="LALL_IN_ONE"> F  </i>
   <i type="int" name="IALL_IN_ONE">    -1</i>
   <i type="int" name="NBANDS_WAVE">    -1</i>
   <i type="logical" name="LFINITE_TEMPERATURE"> F  </i>
   <i type="logical" name="LADDER"> F  </i>
   <i type="logical" name="LRPAFORCE"> F  </i>
   <i type="logical" name="LFXC"> F  </i>
   <i type="logical" name="LHARTREE"> T  </i>
   <i type="int" name="IBSE">     0</i>
   <v type="int" name="KPOINT">    -1     0     0     0</v>
   <i type="logical" name="LTCTC"> F  </i>
   <i type="logical" name="LTCTE"> F  </i>
   <i type="logical" name="LTETE"> F  </i>
   <i type="logical" name="LTRIPLET"> F  </i>
   <i type="logical" name="LFXCEPS"> F  </i>
   <i type="logical" name="LFXHEG"> F  </i>
   <i type="int" name="NATURALO">     2</i>
   <i type="logical" name="LHOLEGF"> F  </i>
   <i type="logical" name="L2ORDER"> F  </i>
   <i type="logical" name="LDMP1"> F  </i>
   <i type="logical" name="LMP2LT"> F  </i>
   <i type="logical" name="LSMP2LT"> F  </i>
   <i type="logical" name="LGWLF"> F  </i>
   <i name="ENCUTGW">     -1.60000002</i>
   <i name="ENCUTGWSOFT">     -1.60000002</i>
   <i name="ENCUTLF">     -1.00000000</i>
   <i type="logical" name="LESF_SPLINES"> F  </i>
   <i type="int" name="LMAXMP2">    -1</i>
   <i name="SCISSOR">      0.00000000</i>
   <i type="int" name="NOMEGA">     0</i>
   <i type="int" name="NOMEGAR">     0</i>
   <i type="int" name="NBANDSGW">    -1</i>
   <i type="int" name="NBANDSO">    -1</i>
   <i type="int" name="NBANDSV">    -1</i>
   <i type="int" name="NELMGW">     1</i>
   <i type="int" name="NELMHF">     1</i>
   <i type="int" name="DIM">     3</i>
   <i type="int" name="IESPILON">     4</i>
   <i type="int" name="ANTIRES">     0</i>
   <i name="OMEGAMAX">    -30.00000000</i>
   <i name="OMEGAMIN">    -30.00000000</i>
   <i name="OMEGATL">   -200.00000000</i>
   <i type="int" name="OMEGAGRID">     0</i>
   <i name="CSHIFT">     -0.10000000</i>
   <i type="logical" name="LSELFENERGY"> F  </i>
   <i type="logical" name="LSPECTRAL"> F  </i>
   <i type="logical" name="LSPECTRALGW"> F  </i>
   <i type="logical" name="LSINGLES"> F  </i>
   <i type="logical" name="LFERMIGW"> F  </i>
   <i type="logical" name="ODDONLYGW"> F  </i>
   <i type="logical" name="EVENONLYGW"> F  </i>
   <i type="int" name="NKREDLFX">     1</i>
   <i type="int" name="NKREDLFY">     1</i>
   <i type="int" name="NKREDLFZ">     1</i>
   <i type="int" name="MAXMEM">  2800</i>
   <i type="int" name="TELESCOPE">     0</i>
   <i type="int" name="NTAUPAR">    -1</i>
   <i type="int" name="NOMEGAPAR">    -1</i>
   <i name="DAMP_NEWTON">      0.80000001</i>
   <i name="LAMBDA">      1.00000000</i>
  </separator>
  <separator name="External order field" >
   <i name="OFIELD_KAPPA">      0.00000000</i>
   <v name="OFIELD_K">      0.00000000      0.00000000      0.00000000</v>
   <i name="OFIELD_Q6_NEAR">      0.00000000</i>
   <i name="OFIELD_Q6_FAR">      0.00000000</i>
   <i name="OFIELD_A">      0.00000000</i>
  </separator>
  <separator name="optional k-points parameters" >
   <i type="int" name="KPOINTS_OPT_MODE">     1</i>
   <i type="logical" name="LKPOINTS_OPT"> F  </i>
  </separator>
 </parameters>
 <atominfo>
  <atoms>       4 </atoms>
  <types>       1 </types>
  <array name="atoms" >
   <dimension dim="1">ion</dimension>
   <field type="string">element</field>
   <field type="int">atomtype</field>
   <set>
    <rc><c>Al</c><c>   1</c></rc>
    <rc><c>Al</c><c>   1</c></rc>
    <rc><c>Al</c><c>   1</c></rc>
    <rc><c>Al</c><c>   1</c></rc>
   </set>
  </array>
  <array name="atomtypes" >
   <dimension dim="1">type</dimension>
   <field type="int">atomspertype</field>
   <field type="string">element</field>
   <field>mass</field>
   <field>valence</field>
   <field type="string">pseudopotential</field>
   <set>
    <rc><c>   4</c><c>Al</c><c>     26.98100000</c><c>      3.00000000</c><c>  PAW_PBE Al 04Jan2001                  </c></rc>
   </set>
  </array>
 </atominfo>
 <structure name="initialpos" >
  <crystal>
   <varray name="basis" >
    <v>       3.97046003       0.00000000       0.00000000 </v>
    <v>      -0.00000000       3.97046003       0.00000000 </v>
    <v>       0.00000000       0.00000000       3.97046003 </v>
   </varray>
   <i name="volume">     62.59252700 </i>
   <varray name="rec_basis" >
    <v>       0.25185998       0.00000000      -0.00000000 </v>
    <v>       0.00000000       0.25185998       0.00000000 </v>
    <v>      -0.00000000      -0.00000000       0.25185998 </v>
   </varray>
  </crystal>
  <varray name="positions" >
   <v>       0.00000000       0.00000000       0.00000000 </v>
   <v>       0.00000000       0.50000000       0.50000000 </v>
   <v>       0.50000000       0.00000000       0.50000000 </v>
   <v>       0.50000000       0.50000000       0.00000000 </v>
  </varray>
 </structure>
 <calculation>
  <scstep>
   <time name="dav">   10.75    5.39</time>
   <time name="total">   10.80    5.41</time>
   <energy>
    <i name="alphaZ">     -0.85858426 </i>
    <i name="ewald">   -299.30503986 </i>
    <i name="hartreedc">     -0.33771062 </i>
    <i name="XCdc">   -104.57345307 </i>
    <i name="pawpsdc">    264.80062850 </i>
    <i name="pawaedc">   -136.98248303 </i>
    <i name="eentropy">      0.00119285 </i>
    <i name="bandstr">     61.17486468 </i>
    <i name="atom">    214.15261729 </i>
    <i name="e_fr_energy">     -1.92796751 </i>
    <i name="e_wo_entrp">     -1.92916036 </i>
    <i name="e_0_energy">     -1.92836513 </i>
   </energy>
  </scstep>
  <scstep>
   <time name="dav">   15.62    7.83</time>
   <time name="total">   15.63    7.83</time>
   <energy>
    <i name="e_fr_energy">    -14.96396085 </i>
    <i name="e_wo_entrp">    -14.96565493 </i>
    <i name="e_0_energy">    -14.96452555 </i>
   </energy>
  </scstep>
  <scstep>
   <time name="dav">   14.38    7.25</time>
   <time name="total">   14.38    7.25</time>
   <energy>
    <i name="e_fr_energy">    -15.03567333 </i>
    <i name="e_wo_entrp">    -15.03719094 </i>
    <i name="e_0_energy">    -15.03617920 </i>
   </energy>
  </scstep>
  <scstep>
   <time name="dav">   17.90    8.96</time>
   <time name="total">   17.90    8.96</time>
   <energy>
    <i name="e_fr_energy">    -15.03585037 </i>
    <i name="e_wo_entrp">    -15.03736501 </i>
    <i name="e_0_energy">    -15.03635525 </i>
   </energy>
  </scstep>
  <scstep>
   <time name="dav">   14.34    7.18</time>
   <time name="total">   14.72    7.37</time>
   <energy>
    <i name="e_fr_energy">    -15.03585046 </i>
    <i name="e_wo_entrp">    -15.03736510 </i>
    <i name="e_0_energy">    -15.03635534 </i>
   </energy>
  </scstep>
  <scstep>
   <time name="diag">    1.75    0.88</time>
   <time name="diis">    3.51    1.89</time>
   <time name="orth">    0.11    0.06</time>
   <time name="total">    5.81    3.05</time>
   <energy>
    <i name="e_fr_energy">    -14.98154893 </i>
    <i name="e_wo_entrp">    -14.98317298 </i>
    <i name="e_0_energy">    -14.98209028 </i>
   </energy>
  </scstep>
  <scstep>
   <time name="diag">    1.74    0.87</time>
   <time name="diis">    3.52    1.91</time>
   <time name="orth">    0.12    0.06</time>
   <time name="total">    5.81    3.06</time>
   <energy>
    <i name="e_fr_energy">    -14.94188038 </i>
    <i name="e_wo_entrp">    -14.94366691 </i>
    <i name="e_0_energy">    -14.94247589 </i>
   </energy>
  </scstep>
  <scstep>
   <time name="diag">    1.75    0.88</time>
   <time name="diis">    3.54    1.92</time>
   <time name="orth">    0.12    0.06</time>
   <time name="total">    5.83    3.07</time>
   <energy>
    <i name="e_fr_energy">    -14.94184974 </i>
    <i name="e_wo_entrp">    -14.94363970 </i>
    <i name="e_0_energy">    -14.94244639 </i>
   </energy>
  </scstep>
  <scstep>
   <time name="diag">    1.75    0.87</time>
   <time name="diis">    3.50    1.88</time>
   <time name="orth">    0.12    0.06</time>
   <time name="total">    5.79    3.03</time>
   <energy>
    <i name="e_fr_energy">    -14.94185565 </i>
    <i name="e_wo_entrp">    -14.94364755 </i>
    <i name="e_0_energy">    -14.94245295 </i>
   </energy>
  </scstep>
  <scstep>
   <time name="diag">    2.15    1.10</time>
   <time name="diis">    3.53    1.91</time>
   <time name="orth">    0.12    0.06</time>
   <time name="total">    6.22    3.28</time>
   <energy>
    <i name="e_fr_energy">    -14.94185604 </i>
    <i name="e_wo_entrp">    -14.94364794 </i>
    <i name="e_0_energy">    -14.94245334 </i>
   </energy>
  </scstep>
  <scstep>
   <time name="diag">    1.73    0.86</time>
   <time name="diis">    3.30    1.90</time>
   <time name="orth">    0.12    0.06</time>
   <time name="total">    5.56    3.04</time>
   <energy>
    <i name="e_fr_energy">    -14.94185231 </i>
    <i name="e_wo_entrp">    -14.94364430 </i>
    <i name="e_0_energy">    -14.94244964 </i>
   </energy>
  </scstep>
  <scstep>
   <time name="diag">    1.73    0.87</time>
   <time name="diis">    2.79    1.79</time>
   <time name="orth">    0.15    0.08</time>
   <time name="total">    4.72    2.75</time>
   <energy>
    <i name="alphaZ">     -0.85858426 </i>
    <i name="ewald">   -299.30503986 </i>
    <i name="hartreedc">     -0.45729584 </i>
    <i name="XCdc">   -104.09015863 </i>
    <i name="pawpsdc">    618.51162383 </i>
    <i name="pawaedc">   -490.78048677 </i>
    <i name="eentropy">      0.00179195 </i>
    <i name="bandstr">     47.88368028 </i>
    <i name="atom">    214.15261729 </i>
    <i name="e_fr_energy">    -14.94185200 </i>
    <i name="e_wo_entrp">    -14.94364395 </i>
    <i name="e_0_energy">    -14.94244932 </i>
   </energy>
  </scstep>
  <structure>
   <crystal>
    <varray name="basis" >
     <v>       3.97046003       0.00000000       0.00000000 </v>
     <v>      -0.00000000       3.97046003       0.00000000 </v>
     <v>       0.00000000       0.00000000       3.97046003 </v>
    </varray>
    <i name="volume">     62.59252700 </i>
    <varray name="rec_basis" >
     <v>       0.25185998       0.00000000      -0.00000000 </v>
     <v>       0.00000000       0.25185998       0.00000000 </v>
     <v>      -0.00000000      -0.00000000       0.25185998 </v>
    </varray>
   </crystal>
   <varray name="positions" >
    <v>       0.00000000       0.00000000       0.00000000 </v>
    <v>       0.00000000       0.50000000       0.50000000 </v>
    <v>       0.50000000       0.00000000       0.50000000 </v>
    <v>       0.50000000       0.50000000       0.00000000 </v>
   </varray>
  </structure>
  <varray name="forces" >
   <v>      -0.00000000      -0.00000000      -0.00000000 </v>
   <v>      -0.00000000       0.00000000      -0.00000000 </v>
   <v>       0.00000000       0.00000000      -0.00000000 </v>
   <v>      -0.00000000      -0.00000000       0.00000000 </v>
  </varray>
  <varray name="stress" >
   <v>      45.20209313       0.00000000       0.00000000 </v>
   <v>       0.00000000      45.20209313       0.00000000 </v>
   <v>      -0.00000000       0.00000000      45.20209313 </v>
  </varray>
  <energy>
   <i name="e_fr_energy">    -14.94185200 </i>
   <i name="e_wo_entrp">    -14.94364395 </i>
   <i name="e_0_energy">    -14.94244932 </i>
  </energy>
  <time name="totalsc">  123.20   63.34</time>
  <eigenvalues>
   <array>
    <dimension dim="1">band</dimension>
    <dimension dim="2">kpoint</dimension>
    <dimension dim="3">spin</dimension>
    <field>eigene</field>
    <field>occ</field>
    <set>
     <set comment="spin 1">
      <set comment="kpoint 1">
       <r>   -2.9237    1.0000 </r>
       <r>    5.4015    1.0000 </r>
       <r>    5.4015    1.0000 </r>
       <r>    5.4015    1.0000 </r>
       <r>    7.0928    1.0000 </r>
       <r>    7.0928    1.0000 </r>
       <r>    7.0928    1.0000 </r>
       <r>   13.4404   -0.0000 </r>
       <r>   13.4404   -0.0000 </r>
       <r>   13.4404   -0.0000 </r>
       <r>   14.4285    0.0000 </r>
       <r>   14.4285    0.0000 </r>
       <r>   14.4287    0.0000 </r>
       <r>   14.7417    0.0000 </r>
      </set>
      <set comment="kpoint 2">
       <r>   -2.8768    1.0000 </r>
       <r>    4.7699    1.0000 </r>
       <r>    5.4444    1.0000 </r>
       <r>    5.4444    1.0000 </r>
       <r>    7.1371    1.0000 </r>
       <r>    7.1371    1.0000 </r>
       <r>    7.8047    1.0000 </r>
       <r>   12.7285   -0.0000 </r>
       <r>   12.7285   -0.0000 </r>
       <r>   13.4846   -0.0000 </r>
       <r>   14.1675    0.0000 </r>
       <r>   14.1675    0.0000 </r>
       <r>   14.4679    0.0000 </r>
       <r>   14.7835    0.0000 </r>
      </set>
      <set comment="kpoint 3">
       <r>   -2.7830    1.0000 </r>
       <r>    4.0282    1.0000 </r>
       <r>    5.5303    1.0000 </r>
       <r>    5.5303    1.0000 </r>
       <r>    7.2253    1.0000 </r>
       <r>    7.2253    1.0000 </r>
       <r>    8.7070    0.0666 </r>
       <r>   11.9786   -0.0000 </r>
       <r>   11.9786   -0.0000 </r>
       <r>   13.5731   -0.0000 </r>
       <r>   13.6668   -0.0000 </r>
       <r>   13.6668   -0.0000 </r>
       <r>   14.5467    0.0000 </r>
       <r>   14.8671    0.0000 </r>
      </set>
      <set comment="kpoint 4">
       <r>   -2.6424    1.0000 </r>
       <r>    3.2914    1.0000 </r>
       <r>    5.6591    1.0000 </r>
       <r>    5.6591    1.0000 </r>
       <r>    7.3566    1.0000 </r>
       <r>    7.3566    1.0000 </r>
       <r>    9.6846   -0.0000 </r>
       <r>   11.2568   -0.0000 </r>
       <r>   11.2568   -0.0000 </r>
       <r>   13.0868   -0.0000 </r>
       <r>   13.0868   -0.0000 </r>
       <r>   13.7058   -0.0000 </r>
       <r>   14.6649    0.0000 </r>
       <r>   14.9927    0.0000 </r>
      </set>
      <set comment="kpoint 5">
       <r>   -2.4551    1.0000 </r>
       <r>    2.5831    1.0000 </r>
       <r>    5.8308    1.0000 </r>
       <r>    5.8308    1.0000 </r>
       <r>    7.5296    1.0000 </r>
       <r>    7.5296    1.0000 </r>
       <r>   10.5734   -0.0000 </r>
       <r>   10.5734   -0.0000 </r>
       <r>   10.7136   -0.0000 </r>
       <r>   12.4884   -0.0000 </r>
       <r>   12.4884   -0.0000 </r>
       <r>   13.8824   -0.0000 </r>
       <r>   14.8225    0.0000 </r>
       <r>   15.1601    0.0000 </r>
      </set>
      <set comment="kpoint 6">
       <r>   -2.2214    1.0000 </r>
       <r>    1.9110    1.0000 </r>
       <r>    6.0454    1.0000 </r>
       <r>    6.0454    1.0000 </r>
       <r>    7.7413    1.0000 </r>
       <r>    7.7413    1.0000 </r>
       <r>    9.9322   -0.0000 </r>
       <r>    9.9322   -0.0000 </r>
       <r>   11.7861   -0.0000 </r>
       <r>   11.9015   -0.0000 </r>
       <r>   11.9015   -0.0000 </r>
       <r>   14.1027    0.0000 </r>
       <r>   15.0196    0.0000 </r>
       <r>   15.3698    0.0000 </r>
      </set>
      <set comment="kpoint 7">
       <r>   -1.9415    1.0000 </r>
       <r>    1.2784    1.0000 </r>
       <r>    6.3027    1.0000 </r>
       <r>    6.3027    1.0000 </r>
       <r>    7.9855    1.0001 </r>
       <r>    7.9855    1.0001 </r>
       <r>    9.3364   -0.0000 </r>
       <r>    9.3364   -0.0000 </r>
       <r>   11.3443   -0.0000 </r>
       <r>   11.3443   -0.0000 </r>
       <r>   12.8983   -0.0000 </r>
       <r>   14.3667    0.0000 </r>
       <r>   15.2562    0.0000 </r>
       <r>   15.6218    0.0000 </r>
      </set>
      <set comment="kpoint 8">
       <r>   -1.6158    1.0000 </r>
       <r>    0.6871    1.0000 </r>
       <r>    6.6027    1.0000 </r>
       <r>    6.6027    1.0000 </r>
       <r>    8.2387    1.0181 </r>
       <r>    8.2387    1.0181 </r>
       <r>    8.8006   -0.0326 </r>
       <r>    8.8006   -0.0326 </r>
       <r>   10.8335   -0.0000 </r>
       <r>   10.8335   -0.0000 </r>
       <r>   14.0445    0.0000 </r>
       <r>   14.6760    0.0000 </r>
       <r>   15.5322    0.0000 </r>
       <r>   15.9166    0.0000 </r>
      </set>
      <set comment="kpoint 9">
       <r>   -1.2444    1.0000 </r>
       <r>    0.1384    1.0000 </r>
       <r>    6.9448    1.0000 </r>
       <r>    6.9448    1.0000 </r>
       <r>    8.1923    1.0096 </r>
       <r>    8.1923    1.0096 </r>
       <r>    8.6099    0.3786 </r>
       <r>    8.6099    0.3786 </r>
       <r>   10.3976   -0.0000 </r>
       <r>   10.3976   -0.0000 </r>
       <r>   15.0016    0.0000 </r>
       <r>   15.2504    0.0000 </r>
       <r>   15.8478    0.0000 </r>
       <r>   16.2576    0.0000 </r>
      </set>
      <set comment="kpoint 10">
       <r>   -0.8280    1.0000 </r>
       <r>   -0.3668    1.0000 </r>
       <r>    7.3264    1.0000 </r>
       <r>    7.3264    1.0000 </r>
       <r>    7.7574    1.0000 </r>
       <r>    7.7574    1.0000 </r>
       <r>    8.7850   -0.0271 </r>
       <r>    8.7850   -0.0271 </r>
       <r>   10.1098   -0.0000 </r>
       <r>   10.1098   -0.0000 </r>
       <r>   15.4041    0.0000 </r>
       <r>   15.8365    0.0000 </r>
       <r>   16.2059    0.0000 </r>
       <r>   16.4383    0.0000 </r>
      </set>
      <set comment="kpoint 11">
       <r>   -2.8299    1.0000 </r>
       <r>    4.8137    1.0000 </r>
       <r>    4.8137    1.0000 </r>
       <r>    5.4874    1.0000 </r>
       <r>    7.1810    1.0000 </r>
       <r>    7.8479    1.0000 </r>
       <r>    7.8479    1.0000 </r>
       <r>   12.1156   -0.0000 </r>
       <r>   12.7721   -0.0000 </r>
       <r>   12.7721   -0.0000 </r>
       <r>   14.2079    0.0000 </r>
       <r>   14.2079    0.0000 </r>
       <r>   14.5081    0.0000 </r>
       <r>   15.5221    0.0000 </r>
      </set>
      <set comment="kpoint 12">
       <r>   -2.7361    1.0000 </r>
       <r>    4.0725    1.0000 </r>
       <r>    4.9011    1.0000 </r>
       <r>    5.5732    1.0000 </r>
       <r>    7.2684    1.0000 </r>
       <r>    7.9341    1.0000 </r>
       <r>    8.7492    0.0000 </r>
       <r>   11.4044   -0.0000 </r>
       <r>   12.0221   -0.0000 </r>
       <r>   12.8594   -0.0000 </r>
       <r>   13.7086   -0.0000 </r>
       <r>   14.2352    0.0000 </r>
       <r>   14.2887    0.0000 </r>
       <r>   15.6091    0.0000 </r>
      </set>
      <set comment="kpoint 13">
       <r>   -2.5955    1.0000 </r>
       <r>    3.3360    1.0000 </r>
       <r>    5.0321    1.0000 </r>
       <r>    5.7020    1.0000 </r>
       <r>    7.3980    1.0000 </r>
       <r>    8.0621    1.0008 </r>
       <r>    9.7254   -0.0000 </r>
       <r>   10.7022   -0.0000 </r>
       <r>   11.3004   -0.0000 </r>
       <r>   12.9902   -0.0000 </r>
       <r>   13.1302   -0.0000 </r>
       <r>   13.6921   -0.0000 </r>
       <r>   14.4100    0.0000 </r>
       <r>   15.7362    0.0000 </r>
      </set>
      <set comment="kpoint 14">
       <r>   -2.4083    1.0000 </r>
       <r>    2.6280    1.0000 </r>
       <r>    5.2066    1.0000 </r>
       <r>    5.8737    1.0000 </r>
       <r>    7.5672    1.0000 </r>
       <r>    8.2302    1.0163 </r>
       <r>   10.0328   -0.0000 </r>
       <r>   10.6175   -0.0000 </r>
       <r>   10.7524   -0.0000 </r>
       <r>   12.5340   -0.0000 </r>
       <r>   13.1010   -0.0000 </r>
       <r>   13.1649   -0.0000 </r>
       <r>   14.5719    0.0000 </r>
       <r>   15.9055    0.0000 </r>
      </set>
      <set comment="kpoint 15">
       <r>   -2.1747    1.0000 </r>
       <r>    1.9562    1.0000 </r>
       <r>    5.4244    1.0000 </r>
       <r>    6.0881    1.0000 </r>
       <r>    7.7687    1.0000 </r>
       <r>    8.4345    0.9705 </r>
       <r>    9.4092   -0.0000 </r>
       <r>    9.9775   -0.0000 </r>
       <r>   11.8210   -0.0000 </r>
       <r>   11.9506   -0.0000 </r>
       <r>   12.5140   -0.0000 </r>
       <r>   13.3837   -0.0000 </r>
       <r>   14.7748    0.0000 </r>
       <r>   16.1171    0.0000 </r>
      </set>
      <set comment="kpoint 16">
       <r>   -1.8950    1.0000 </r>
       <r>    1.3238    1.0000 </r>
       <r>    5.6851    1.0000 </r>
       <r>    6.3452    1.0000 </r>
       <r>    7.9731    1.0001 </r>
       <r>    8.6620    0.1861 </r>
       <r>    8.8617   -0.0316 </r>
       <r>    9.3885   -0.0000 </r>
       <r>   11.4002   -0.0000 </r>
       <r>   11.9520   -0.0000 </r>
       <r>   12.9232   -0.0000 </r>
       <r>   13.6500   -0.0000 </r>
       <r>   15.0197    0.0000 </r>
       <r>   16.3713    0.0000 </r>
      </set>
      <set comment="kpoint 17">
       <r>   -1.5693    1.0000 </r>
       <r>    0.7328    1.0000 </r>
       <r>    5.9882    1.0000 </r>
       <r>    6.6444    1.0000 </r>
       <r>    7.9793    1.0001 </r>
       <r>    8.5886    0.4673 </r>
       <r>    8.7302    0.0248 </r>
       <r>    9.0181   -0.0042 </r>
       <r>   10.9059   -0.0000 </r>
       <r>   11.4282   -0.0000 </r>
       <r>   13.8935   -0.0000 </r>
       <r>   14.1215    0.0000 </r>
       <r>   15.3110    0.0000 </r>
       <r>   16.0791    0.0000 </r>
      </set>
      <set comment="kpoint 18">
       <r>   -1.1981    1.0000 </r>
       <r>    0.1843    1.0000 </r>
       <r>    6.3329    1.0000 </r>
       <r>    6.9824    1.0000 </r>
       <r>    7.6003    1.0000 </r>
       <r>    8.2737    1.0260 </r>
       <r>    8.7698   -0.0184 </r>
       <r>    9.1848   -0.0001 </r>
       <r>   10.5204   -0.0000 </r>
       <r>   10.9582   -0.0000 </r>
       <r>   14.2767    0.0000 </r>
       <r>   15.2130    0.0000 </r>
       <r>   15.5685    0.0000 </r>
       <r>   15.6867    0.0000 </r>
      </set>
      <set comment="kpoint 19">
       <r>   -0.7818    1.0000 </r>
       <r>   -0.3208    1.0000 </r>
       <r>    6.7165    1.0000 </r>
       <r>    7.1222    1.0000 </r>
       <r>    7.3998    1.0000 </r>
       <r>    7.8102    1.0000 </r>
       <r>    9.0475   -0.0024 </r>
       <r>    9.2373   -0.0000 </r>
       <r>   10.3816   -0.0000 </r>
       <r>   10.5758   -0.0000 </r>
       <r>   14.6678    0.0000 </r>
       <r>   15.0980    0.0000 </r>
       <r>   15.9084    0.0000 </r>
       <r>   16.3381    0.0000 </r>
      </set>
      <set comment="kpoint 20">
       <r>   -2.6424    1.0000 </r>
       <r>    4.1609    1.0000 </r>
       <r>    4.1609    1.0000 </r>
       <r>    5.6591    1.0000 </r>
       <r>    7.3538    1.0000 </r>
       <r>    8.8330   -0.0353 </r>
       <r>    8.8330   -0.0353 </r>
       <r>   10.7115   -0.0000 </r>
       <r>   12.1092   -0.0000 </r>
       <r>   12.1092   -0.0000 </r>
       <r>   13.7923   -0.0000 </r>
       <r>   13.7923   -0.0000 </r>
       <r>   14.6672    0.0000 </r>
       <r>   15.9879    0.0000 </r>
      </set>
      <set comment="kpoint 21">
       <r>   -2.5019    1.0000 </r>
       <r>    3.4253    1.0000 </r>
       <r>    4.2935    1.0000 </r>
       <r>    5.7878    1.0000 </r>
       <r>    7.4787    1.0000 </r>
       <r>    8.9570   -0.0115 </r>
       <r>    9.8060   -0.0000 </r>
       <r>   10.0211   -0.0000 </r>
       <r>   11.3878   -0.0000 </r>
       <r>   12.2401   -0.0000 </r>
       <r>   13.2174   -0.0000 </r>
       <r>   13.9181   -0.0000 </r>
       <r>   14.4276    0.0000 </r>
       <r>   16.5604    0.0000 </r>
      </set>
      <set comment="kpoint 22">
       <r>   -2.3149    1.0000 </r>
       <r>    2.7179    1.0000 </r>
       <r>    4.4700    1.0000 </r>
       <r>    5.9593    1.0000 </r>
       <r>    7.6358    1.0000 </r>
       <r>    9.1179   -0.0005 </r>
       <r>    9.3675   -0.0000 </r>
       <r>   10.7062   -0.0000 </r>
       <r>   10.8276   -0.0000 </r>
       <r>   12.4154   -0.0000 </r>
       <r>   12.6262   -0.0000 </r>
       <r>   13.9031   -0.0000 </r>
       <r>   14.0868    0.0000 </r>
       <r>   16.8758    0.0000 </r>
      </set>
      <set comment="kpoint 23">
       <r>   -2.0814    1.0000 </r>
       <r>    2.0466    1.0000 </r>
       <r>    4.6903    1.0000 </r>
       <r>    6.1734    1.0000 </r>
       <r>    7.7945    1.0000 </r>
       <r>    8.7897   -0.0291 </r>
       <r>    9.3054   -0.0000 </r>
       <r>   10.0727   -0.0000 </r>
       <r>   11.8837   -0.0000 </r>
       <r>   12.0515   -0.0000 </r>
       <r>   12.6391   -0.0000 </r>
       <r>   13.3364   -0.0000 </r>
       <r>   14.3004    0.0000 </r>
       <r>   16.4717    0.0000 </r>
      </set>
      <set comment="kpoint 24">
       <r>   -1.8018    1.0000 </r>
       <r>    1.4147    1.0000 </r>
       <r>    4.9539    1.0000 </r>
       <r>    6.4296    1.0000 </r>
       <r>    7.7753    1.0000 </r>
       <r>    8.4701    0.8982 </r>
       <r>    9.3687   -0.0000 </r>
       <r>    9.6263   -0.0000 </r>
       <r>   11.5203   -0.0000 </r>
       <r>   12.7808   -0.0000 </r>
       <r>   12.8219   -0.0000 </r>
       <r>   13.0532   -0.0000 </r>
       <r>   14.5649    0.0000 </r>
       <r>   15.8799    0.0000 </r>
      </set>
      <set comment="kpoint 25">
       <r>   -1.4764    1.0000 </r>
       <r>    0.8241    1.0000 </r>
       <r>    5.2606    1.0000 </r>
       <r>    6.7244    1.0000 </r>
       <r>    7.3883    1.0000 </r>
       <r>    8.6016    0.4127 </r>
       <r>    8.8765   -0.0286 </r>
       <r>    9.7581   -0.0000 </r>
       <r>   11.0813   -0.0000 </r>
       <r>   12.2549   -0.0000 </r>
       <r>   13.1748   -0.0000 </r>
       <r>   14.0896    0.0000 </r>
       <r>   14.9132    0.0000 </r>
       <r>   15.3273    0.0000 </r>
      </set>
      <set comment="kpoint 26">
       <r>   -1.1055    1.0000 </r>
       <r>    0.2760    1.0000 </r>
       <r>    5.6094    1.0000 </r>
       <r>    6.8634    1.0000 </r>
       <r>    7.1127    1.0000 </r>
       <r>    8.3680    1.0306 </r>
       <r>    8.8956   -0.0243 </r>
       <r>    9.7989   -0.0000 </r>
       <r>   10.8694   -0.0000 </r>
       <r>   11.7703   -0.0000 </r>
       <r>   13.5245   -0.0000 </r>
       <r>   14.8149    0.0000 </r>
       <r>   14.9324    0.0000 </r>
       <r>   15.5758    0.0000 </r>
      </set>
      <set comment="kpoint 27">
       <r>   -0.6894    1.0000 </r>
       <r>   -0.2288    1.0000 </r>
       <r>    5.9990    1.0000 </r>
       <r>    6.4259    1.0000 </r>
       <r>    7.4726    1.0000 </r>
       <r>    7.8985    1.0000 </r>
       <r>    9.2382   -0.0000 </r>
       <r>    9.5779   -0.0000 </r>
       <r>   11.0041   -0.0000 </r>
       <r>   11.3416   -0.0000 </r>
       <r>   13.9134   -0.0000 </r>
       <r>   14.3435    0.0000 </r>
       <r>   15.4102    0.0000 </r>
       <r>   15.8412    0.0000 </r>
      </set>
      <set comment="kpoint 28">
       <r>   -2.3616    1.0000 </r>
       <r>    3.5590    1.0000 </r>
       <r>    3.5590    1.0000 </r>
       <r>    5.9163    1.0000 </r>
       <r>    7.5913    1.0000 </r>
       <r>    9.3457   -0.0000 </r>
       <r>    9.9236   -0.0000 </r>
       <r>    9.9236   -0.0000 </r>
       <r>   11.5199   -0.0000 </r>
       <r>   11.5199   -0.0000 </r>
       <r>   13.3493   -0.0000 </r>
       <r>   13.3493   -0.0000 </r>
       <r>   14.9061    0.0000 </r>
       <r>   16.4009    0.0000 </r>
      </set>
      <set comment="kpoint 29">
       <r>   -2.1747    1.0000 </r>
       <r>    2.8526    1.0000 </r>
       <r>    3.7370    1.0000 </r>
       <r>    6.0875    1.0000 </r>
       <r>    7.7050    1.0000 </r>
       <r>    8.7364    0.0158 </r>
       <r>   10.0690   -0.0000 </r>
       <r>   10.8443   -0.0000 </r>
       <r>   10.9309   -0.0000 </r>
       <r>   11.7008   -0.0000 </r>
       <r>   12.7677   -0.0000 </r>
       <r>   13.5283   -0.0000 </r>
       <r>   14.7096    0.0000 </r>
       <r>   16.3901    0.0000 </r>
      </set>
      <set comment="kpoint 30">
       <r>   -1.9416    1.0000 </r>
       <r>    2.1820    1.0000 </r>
       <r>    3.9592    1.0000 </r>
       <r>    6.3007    1.0000 </r>
       <r>    7.6485    1.0000 </r>
       <r>    8.3748    1.0280 </r>
       <r>   10.1002   -0.0000 </r>
       <r>   10.3464   -0.0000 </r>
       <r>   11.8290   -0.0000 </r>
       <r>   12.0645   -0.0000 </r>
       <r>   12.2129   -0.0000 </r>
       <r>   13.7619   -0.0000 </r>
       <r>   14.2219    0.0000 </r>
       <r>   15.7561    0.0000 </r>
      </set>
      <set comment="kpoint 31">
       <r>   -1.6623    1.0000 </r>
       <r>    1.5509    1.0000 </r>
       <r>    4.2253    1.0000 </r>
       <r>    6.5524    1.0000 </r>
       <r>    7.2324    1.0000 </r>
       <r>    8.4571    0.9282 </r>
       <r>    9.5655   -0.0000 </r>
       <r>   10.4411   -0.0000 </r>
       <r>   11.7371   -0.0000 </r>
       <r>   12.1469   -0.0000 </r>
       <r>   13.0465   -0.0000 </r>
       <r>   13.6918   -0.0000 </r>
       <r>   14.0817    0.0000 </r>
       <r>   15.1610    0.0000 </r>
      </set>
      <set comment="kpoint 32">
       <r>   -1.3372    1.0000 </r>
       <r>    0.9609    1.0000 </r>
       <r>    4.5348    1.0000 </r>
       <r>    6.6625    1.0000 </r>
       <r>    6.9040    1.0000 </r>
       <r>    8.7169    0.0472 </r>
       <r>    9.0134   -0.0046 </r>
       <r>   10.4523   -0.0000 </r>
       <r>   11.4760   -0.0000 </r>
       <r>   12.4547   -0.0000 </r>
       <r>   13.1749   -0.0000 </r>
       <r>   13.9078   -0.0000 </r>
       <r>   14.6062    0.0000 </r>
       <r>   14.6532    0.0000 </r>
      </set>
      <set comment="kpoint 33">
       <r>   -0.9666    1.0000 </r>
       <r>    0.4134    1.0000 </r>
       <r>    4.8871    1.0000 </r>
       <r>    6.1868    1.0000 </r>
       <r>    7.2167    1.0000 </r>
       <r>    8.4999    0.8135 </r>
       <r>    9.0438   -0.0025 </r>
       <r>   10.1941   -0.0000 </r>
       <r>   11.5646   -0.0000 </r>
       <r>   12.6896   -0.0000 </r>
       <r>   12.8016   -0.0000 </r>
       <r>   14.0925    0.0000 </r>
       <r>   14.4238    0.0000 </r>
       <r>   15.6509    0.0000 </r>
      </set>
      <set comment="kpoint 34">
       <r>   -0.5510    1.0000 </r>
       <r>   -0.0908    1.0000 </r>
       <r>    5.2814    1.0000 </r>
       <r>    5.7159    1.0000 </r>
       <r>    7.6000    1.0000 </r>
       <r>    8.0284    1.0003 </r>
       <r>    9.4134   -0.0000 </r>
       <r>    9.8090   -0.0000 </r>
       <r>   11.8600   -0.0000 </r>
       <r>   12.2467   -0.0000 </r>
       <r>   13.1899   -0.0000 </r>
       <r>   13.6203   -0.0000 </r>
       <r>   14.8432    0.0000 </r>
       <r>   15.2713    0.0000 </r>
      </set>
      <set comment="kpoint 35">
       <r>   -1.9882    1.0000 </r>
       <r>    3.0319    1.0000 </r>
       <r>    3.0319    1.0000 </r>
       <r>    6.2577    1.0000 </r>
       <r>    7.6058    1.0000 </r>
       <r>    8.3404    1.0354 </r>
       <r>   10.9210   -0.0000 </r>
       <r>   10.9210   -0.0000 </r>
       <r>   11.1610   -0.0000 </r>
       <r>   11.1610   -0.0000 </r>
       <r>   12.9669   -0.0000 </r>
       <r>   12.9669   -0.0000 </r>
       <r>   15.2248    0.0000 </r>
       <r>   15.7145    0.0000 </r>
      </set>
      <set comment="kpoint 36">
       <r>   -1.7553    1.0000 </r>
       <r>    2.3625    1.0000 </r>
       <r>    3.2557    1.0000 </r>
       <r>    6.4664    1.0000 </r>
       <r>    7.1520    1.0000 </r>
       <r>    8.3795    1.0258 </r>
       <r>   10.3406   -0.0000 </r>
       <r>   11.2014   -0.0000 </r>
       <r>   11.2197   -0.0000 </r>
       <r>   12.0891   -0.0000 </r>
       <r>   12.4670   -0.0000 </r>
       <r>   13.2552   -0.0000 </r>
       <r>   15.0753    0.0000 </r>
       <r>   15.0770    0.0000 </r>
      </set>
      <set comment="kpoint 37">
       <r>   -1.4764    1.0000 </r>
       <r>    1.7322    1.0000 </r>
       <r>    3.5237    1.0000 </r>
       <r>    6.5389    1.0000 </r>
       <r>    6.7776    1.0000 </r>
       <r>    8.5986    0.4252 </r>
       <r>    9.7453   -0.0000 </r>
       <r>   11.1936   -0.0000 </r>
       <r>   11.4667   -0.0000 </r>
       <r>   12.1716   -0.0000 </r>
       <r>   12.9279   -0.0000 </r>
       <r>   13.7722   -0.0000 </r>
       <r>   14.4796    0.0000 </r>
       <r>   14.6315    0.0000 </r>
      </set>
      <set comment="kpoint 38">
       <r>   -1.1517    1.0000 </r>
       <r>    1.1431    1.0000 </r>
       <r>    3.8355    1.0000 </r>
       <r>    6.0222    1.0000 </r>
       <r>    7.0455    1.0000 </r>
       <r>    8.8889   -0.0258 </r>
       <r>    9.1884   -0.0001 </r>
       <r>   10.8939   -0.0000 </r>
       <r>   11.7708   -0.0000 </r>
       <r>   12.2242   -0.0000 </r>
       <r>   13.4520   -0.0000 </r>
       <r>   13.9232   -0.0000 </r>
       <r>   14.1435    0.0000 </r>
       <r>   14.6860    0.0000 </r>
      </set>
      <set comment="kpoint 39">
       <r>   -0.7817    1.0000 </r>
       <r>    0.5964    1.0000 </r>
       <r>    4.1907    1.0000 </r>
       <r>    5.5074    1.0000 </r>
       <r>    7.3859    1.0000 </r>
       <r>    8.6733    0.1512 </r>
       <r>    9.2291   -0.0000 </r>
       <r>   10.4665   -0.0000 </r>
       <r>   12.1167   -0.0000 </r>
       <r>   12.4801   -0.0000 </r>
       <r>   13.4084   -0.0000 </r>
       <r>   13.6688   -0.0000 </r>
       <r>   13.8547   -0.0000 </r>
       <r>   15.1403    0.0000 </r>
      </set>
      <set comment="kpoint 40">
       <r>   -0.3667    1.0000 </r>
       <r>    0.0929    1.0000 </r>
       <r>    4.5886    1.0000 </r>
       <r>    5.0281    1.0000 </r>
       <r>    7.7716    1.0000 </r>
       <r>    8.2010    1.0109 </r>
       <r>    9.6110   -0.0000 </r>
       <r>   10.0275   -0.0000 </r>
       <r>   12.5050   -0.0000 </r>
       <r>   12.8252   -0.0000 </r>
       <r>   12.9355   -0.0000 </r>
       <r>   13.2258   -0.0000 </r>
       <r>   14.2561    0.0000 </r>
       <r>   14.6825    0.0000 </r>
      </set>
      <set comment="kpoint 41">
       <r>   -1.5228    1.0000 </r>
       <r>    2.5876    1.0000 </r>
       <r>    2.5876    1.0000 </r>
       <r>    6.4973    1.0000 </r>
       <r>    6.7354    1.0000 </r>
       <r>    8.5580    0.5961 </r>
       <r>   10.5632   -0.0000 </r>
       <r>   10.5632   -0.0000 </r>
       <r>   12.0203   -0.0000 </r>
       <r>   12.0203   -0.0000 </r>
       <r>   12.9410   -0.0000 </r>
       <r>   12.9410   -0.0000 </r>
       <r>   14.4372    0.0000 </r>
       <r>   15.6236    0.0000 </r>
      </set>
      <set comment="kpoint 42">
       <r>   -1.2444    1.0000 </r>
       <r>    1.9586    1.0000 </r>
       <r>    2.8573    1.0000 </r>
       <r>    5.9388    1.0000 </r>
       <r>    6.9598    1.0000 </r>
       <r>    8.8077   -0.0340 </r>
       <r>    9.9634   -0.0000 </r>
       <r>   10.8244   -0.0000 </r>
       <r>   11.6742   -0.0000 </r>
       <r>   12.5297   -0.0000 </r>
       <r>   12.9692   -0.0000 </r>
       <r>   13.7916   -0.0000 </r>
       <r>   13.8382   -0.0000 </r>
       <r>   15.5708    0.0000 </r>
      </set>
      <set comment="kpoint 43">
       <r>   -0.9203    1.0000 </r>
       <r>    1.3706    1.0000 </r>
       <r>    3.1711    1.0000 </r>
       <r>    5.3806    1.0000 </r>
       <r>    7.2573    1.0000 </r>
       <r>    9.1090   -0.0006 </r>
       <r>    9.4051   -0.0000 </r>
       <r>   11.1273   -0.0000 </r>
       <r>   11.2058   -0.0000 </r>
       <r>   12.9083   -0.0000 </r>
       <r>   13.1897   -0.0000 </r>
       <r>   13.2806   -0.0000 </r>
       <r>   14.8520    0.0000 </r>
       <r>   15.0534    0.0000 </r>
      </set>
      <set comment="kpoint 44">
       <r>   -0.5509    1.0000 </r>
       <r>    0.8248    1.0000 </r>
       <r>    3.5286    1.0000 </r>
       <r>    4.8569    1.0000 </r>
       <r>    7.6002    1.0000 </r>
       <r>    8.8894   -0.0257 </r>
       <r>    9.4554   -0.0000 </r>
       <r>   10.7269   -0.0000 </r>
       <r>   11.4727   -0.0000 </r>
       <r>   12.7650   -0.0000 </r>
       <r>   13.2795   -0.0000 </r>
       <r>   13.4942   -0.0000 </r>
       <r>   14.5601    0.0000 </r>
       <r>   14.6834    0.0000 </r>
      </set>
      <set comment="kpoint 45">
       <r>   -0.1366    1.0000 </r>
       <r>    0.3222    1.0000 </r>
       <r>    3.9294    1.0000 </r>
       <r>    4.3725    1.0000 </r>
       <r>    7.9867    1.0001 </r>
       <r>    8.4165    0.9954 </r>
       <r>    9.8433   -0.0000 </r>
       <r>   10.2690   -0.0000 </r>
       <r>   11.8609   -0.0000 </r>
       <r>   12.2918   -0.0000 </r>
       <r>   13.6742   -0.0000 </r>
       <r>   13.8524   -0.0000 </r>
       <r>   14.1004    0.0000 </r>
       <r>   14.2522    0.0000 </r>
      </set>
      <set comment="kpoint 46">
       <r>   -0.9666    1.0000 </r>
       <r>    2.2297    1.0000 </r>
       <r>    2.2297    1.0000 </r>
       <r>    5.3380    1.0000 </r>
       <r>    7.2144    1.0000 </r>
       <r>    9.0679   -0.0015 </r>
       <r>   10.2232   -0.0000 </r>
       <r>   10.2232   -0.0000 </r>
       <r>   12.0219   -0.0000 </r>
       <r>   12.0219   -0.0000 </r>
       <r>   13.2379   -0.0000 </r>
       <r>   13.9816   -0.0000 </r>
       <r>   13.9816   -0.0000 </r>
       <r>   15.0229    0.0000 </r>
      </set>
      <set comment="kpoint 47">
       <r>   -0.6432    1.0000 </r>
       <r>    1.6430    1.0000 </r>
       <r>    2.5452    1.0000 </r>
       <r>    4.7708    1.0000 </r>
       <r>    7.5143    1.0000 </r>
       <r>    9.3742   -0.0000 </r>
       <r>    9.6644   -0.0000 </r>
       <r>   10.5257   -0.0000 </r>
       <r>   11.5059   -0.0000 </r>
       <r>   12.3592   -0.0000 </r>
       <r>   12.6795   -0.0000 </r>
       <r>   14.2475    0.0000 </r>
       <r>   14.4957    0.0000 </r>
       <r>   15.0818    0.0000 </r>
      </set>
      <set comment="kpoint 48">
       <r>   -0.2745    1.0000 </r>
       <r>    1.0984    1.0000 </r>
       <r>    2.9048    1.0000 </r>
       <r>    4.2421    1.0000 </r>
       <r>    7.8580    1.0000 </r>
       <r>    9.1483   -0.0002 </r>
       <r>    9.7239   -0.0000 </r>
       <r>   10.8709   -0.0000 </r>
       <r>   11.0100   -0.0000 </r>
       <r>   12.1635   -0.0000 </r>
       <r>   12.7192   -0.0000 </r>
       <r>   14.0000   -0.0000 </r>
       <r>   14.5641    0.0000 </r>
       <r>   15.7056    0.0000 </r>
      </set>
      <set comment="kpoint 49">
       <r>    0.1390    1.0000 </r>
       <r>    0.5968    1.0000 </r>
       <r>    3.3079    1.0000 </r>
       <r>    3.7540    1.0000 </r>
       <r>    8.2449    1.0194 </r>
       <r>    8.6751    0.1462 </r>
       <r>   10.1148   -0.0000 </r>
       <r>   10.5445   -0.0000 </r>
       <r>   11.2589   -0.0000 </r>
       <r>   11.6898   -0.0000 </r>
       <r>   13.1113   -0.0000 </r>
       <r>   13.5382   -0.0000 </r>
       <r>   14.9209    0.0000 </r>
       <r>   15.3079    0.0000 </r>
      </set>
      <set comment="kpoint 50">
       <r>   -0.3205    1.0000 </r>
       <r>    1.9600    1.0000 </r>
       <r>    1.9600    1.0000 </r>
       <r>    4.1984    1.0000 </r>
       <r>    7.8150    1.0000 </r>
       <r>    9.6831   -0.0000 </r>
       <r>    9.9665   -0.0000 </r>
       <r>    9.9665   -0.0000 </r>
       <r>   11.8287   -0.0000 </r>
       <r>   11.8287   -0.0000 </r>
       <r>   12.1207   -0.0000 </r>
       <r>   13.9656   -0.0000 </r>
       <r>   15.3579    0.0000 </r>
       <r>   15.3579    0.0000 </r>
      </set>
      <set comment="kpoint 51">
       <r>    0.0472    1.0000 </r>
       <r>    1.4168    1.0000 </r>
       <r>    2.3214    1.0000 </r>
       <r>    3.6660    1.0000 </r>
       <r>    8.1591    1.0055 </r>
       <r>    9.4501   -0.0000 </r>
       <r>   10.0344   -0.0000 </r>
       <r>   10.3116   -0.0000 </r>
       <r>   11.3265   -0.0000 </r>
       <r>   11.6041   -0.0000 </r>
       <r>   12.1841   -0.0000 </r>
       <r>   13.4673   -0.0000 </r>
       <r>   15.6720    0.0000 </r>
       <r>   16.5043    0.0000 </r>
      </set>
      <set comment="kpoint 52">
       <r>    0.4597    1.0000 </r>
       <r>    0.9164    1.0000 </r>
       <r>    2.7266    1.0000 </r>
       <r>    3.1750    1.0000 </r>
       <r>    8.5463    0.6437 </r>
       <r>    8.9767   -0.0085 </r>
       <r>   10.4266   -0.0000 </r>
       <r>   10.6995   -0.0000 </r>
       <r>   10.8580   -0.0000 </r>
       <r>   11.1303   -0.0000 </r>
       <r>   12.5754   -0.0000 </r>
       <r>   13.0033   -0.0000 </r>
       <r>   16.0148    0.0000 </r>
       <r>   16.3660    0.0000 </r>
      </set>
      <set comment="kpoint 53">
       <r>    0.4140    1.0000 </r>
       <r>    1.7797    1.0000 </r>
       <r>    1.7797    1.0000 </r>
       <r>    3.1306    1.0000 </r>
       <r>    8.5034    0.8020 </r>
       <r>    9.7950   -0.0000 </r>
       <r>    9.7950   -0.0000 </r>
       <r>   10.3864   -0.0000 </r>
       <r>   11.0874   -0.0000 </r>
       <r>   11.6800   -0.0000 </r>
       <r>   11.6800   -0.0000 </r>
       <r>   12.9665   -0.0000 </r>
       <r>   16.8019    0.0000 </r>
       <r>   16.8038    0.0000 </r>
      </set>
      <set comment="kpoint 54">
       <r>    0.8254    1.0000 </r>
       <r>    1.2808    1.0000 </r>
       <r>    2.1867    1.0000 </r>
       <r>    2.6372    1.0000 </r>
       <r>    8.8909   -0.0254 </r>
       <r>    9.3214   -0.0000 </r>
       <r>   10.1829   -0.0000 </r>
       <r>   10.6137   -0.0000 </r>
       <r>   10.7790   -0.0000 </r>
       <r>   11.2108   -0.0000 </r>
       <r>   12.0714   -0.0000 </r>
       <r>   12.5006   -0.0000 </r>
       <r>   17.1069    0.0000 </r>
       <r>   17.3527    0.0000 </r>
      </set>
      <set comment="kpoint 55">
       <r>    1.2354    1.0000 </r>
       <r>    1.6894    1.0000 </r>
       <r>    1.6894    1.0000 </r>
       <r>    2.1418    1.0000 </r>
       <r>    9.2785   -0.0000 </r>
       <r>    9.7092   -0.0000 </r>
       <r>    9.7092   -0.0000 </r>
       <r>   10.1400   -0.0000 </r>
       <r>   11.1713   -0.0000 </r>
       <r>   11.6027   -0.0000 </r>
       <r>   11.6027   -0.0000 </r>
       <r>   12.0331   -0.0000 </r>
       <r>   18.0277    0.0000 </r>
       <r>   18.1223    0.0000 </r>
      </set>
      <set comment="kpoint 56">
       <r>   -2.7830    1.0000 </r>
       <r>    4.8574    1.0000 </r>
       <r>    4.8574    1.0000 </r>
       <r>    4.8574    1.0000 </r>
       <r>    7.8908    1.0000 </r>
       <r>    7.8908    1.0000 </r>
       <r>    7.8908    1.0000 </r>
       <r>   12.1594   -0.0000 </r>
       <r>   12.1594   -0.0000 </r>
       <r>   12.1594   -0.0000 </r>
       <r>   14.5474    0.0000 </r>
       <r>   14.5474    0.0000 </r>
       <r>   14.5474    0.0000 </r>
       <r>   15.5367    0.0000 </r>
      </set>
      <set comment="kpoint 57">
       <r>   -2.6892    1.0000 </r>
       <r>    4.1167    1.0000 </r>
       <r>    4.9448    1.0000 </r>
       <r>    4.9448    1.0000 </r>
       <r>    7.9758    1.0001 </r>
       <r>    7.9758    1.0001 </r>
       <r>    8.7907   -0.0295 </r>
       <r>   11.4489   -0.0000 </r>
       <r>   11.4489   -0.0000 </r>
       <r>   12.2472   -0.0000 </r>
       <r>   14.2760    0.0000 </r>
       <r>   14.2760    0.0000 </r>
       <r>   14.6262    0.0000 </r>
       <r>   15.6248    0.0000 </r>
      </set>
      <set comment="kpoint 58">
       <r>   -2.5487    1.0000 </r>
       <r>    3.3806    1.0000 </r>
       <r>    5.0757    1.0000 </r>
       <r>    5.0757    1.0000 </r>
       <r>    8.1013    1.0018 </r>
       <r>    8.1013    1.0018 </r>
       <r>    9.7648   -0.0000 </r>
       <r>   10.7482   -0.0000 </r>
       <r>   10.7482   -0.0000 </r>
       <r>   12.3795   -0.0000 </r>
       <r>   13.7343   -0.0000 </r>
       <r>   13.7343   -0.0000 </r>
       <r>   14.7446    0.0000 </r>
       <r>   15.7570    0.0000 </r>
      </set>
      <set comment="kpoint 59">
       <r>   -2.3616    1.0000 </r>
       <r>    2.6730    1.0000 </r>
       <r>    5.2500    1.0000 </r>
       <r>    5.2500    1.0000 </r>
       <r>    8.2630    1.0236 </r>
       <r>    8.2630    1.0236 </r>
       <r>   10.0826   -0.0000 </r>
       <r>   10.0826   -0.0000 </r>
       <r>   10.7874   -0.0000 </r>
       <r>   12.5576   -0.0000 </r>
       <r>   13.1447   -0.0000 </r>
       <r>   13.1447   -0.0000 </r>
       <r>   14.9023    0.0000 </r>
       <r>   15.9329    0.0000 </r>
      </set>
      <set comment="kpoint 60">
       <r>   -2.1281    1.0000 </r>
       <r>    2.0014    1.0000 </r>
       <r>    5.4675    1.0000 </r>
       <r>    5.4675    1.0000 </r>
       <r>    8.4445    0.9533 </r>
       <r>    8.4445    0.9533 </r>
       <r>    9.4744   -0.0000 </r>
       <r>    9.4744   -0.0000 </r>
       <r>   11.8428   -0.0000 </r>
       <r>   12.5599   -0.0000 </r>
       <r>   12.5599   -0.0000 </r>
       <r>   12.7892   -0.0000 </r>
       <r>   15.0994    0.0000 </r>
       <r>   16.1530    0.0000 </r>
      </set>
      <set comment="kpoint 61">
       <r>   -1.8484    1.0000 </r>
       <r>    1.3692    1.0000 </r>
       <r>    5.7277    1.0000 </r>
       <r>    5.7277    1.0000 </r>
       <r>    8.5218    0.7381 </r>
       <r>    8.5218    0.7381 </r>
       <r>    9.0478   -0.0023 </r>
       <r>    9.0478   -0.0023 </r>
       <r>   12.0014   -0.0000 </r>
       <r>   12.0014   -0.0000 </r>
       <r>   12.8249   -0.0000 </r>
       <r>   13.1766   -0.0000 </r>
       <r>   15.3361    0.0000 </r>
       <r>   15.9890    0.0000 </r>
      </set>
      <set comment="kpoint 62">
       <r>   -1.5228    1.0000 </r>
       <r>    0.7784    1.0000 </r>
       <r>    6.0296    1.0000 </r>
       <r>    6.0296    1.0000 </r>
       <r>    8.1638    1.0060 </r>
       <r>    8.1638    1.0060 </r>
       <r>    9.1289   -0.0004 </r>
       <r>    9.1289   -0.0004 </r>
       <r>   11.4851   -0.0000 </r>
       <r>   11.4851   -0.0000 </r>
       <r>   13.2789   -0.0000 </r>
       <r>   14.1705    0.0000 </r>
       <r>   15.4403    0.0000 </r>
       <r>   15.6123    0.0000 </r>
      </set>
      <set comment="kpoint 63">
       <r>   -1.1518    1.0000 </r>
       <r>    0.2301    1.0000 </r>
       <r>    6.3706    1.0000 </r>
       <r>    6.3706    1.0000 </r>
       <r>    7.6858    1.0000 </r>
       <r>    7.6858    1.0000 </r>
       <r>    9.3859   -0.0000 </r>
       <r>    9.3859   -0.0000 </r>
       <r>   11.0354   -0.0000 </r>
       <r>   11.0354   -0.0000 </r>
       <r>   13.6397   -0.0000 </r>
       <r>   14.9308    0.0000 </r>
       <r>   15.3310    0.0000 </r>
       <r>   15.9279    0.0000 </r>
      </set>
      <set comment="kpoint 64">
       <r>   -0.7356    1.0000 </r>
       <r>   -0.2748    1.0000 </r>
       <r>    6.7317    1.0000 </r>
       <r>    6.7317    1.0000 </r>
       <r>    7.2484    1.0000 </r>
       <r>    7.2484    1.0000 </r>
       <r>    9.6086   -0.0000 </r>
       <r>    9.6086   -0.0000 </r>
       <r>   10.7237   -0.0000 </r>
       <r>   10.7237   -0.0000 </r>
       <r>   14.0311   -0.0000 </r>
       <r>   14.4610    0.0000 </r>
       <r>   16.2836    0.0000 </r>
       <r>   16.5223    0.0000 </r>
      </set>
      <set comment="kpoint 65">
       <r>   -2.5955    1.0000 </r>
       <r>    4.2051    1.0000 </r>
       <r>    4.2051    1.0000 </r>
       <r>    5.0320    1.0000 </r>
       <r>    8.0578    1.0007 </r>
       <r>    8.8725   -0.0295 </r>
       <r>    8.8725   -0.0295 </r>
[...]
       <r>    1.6898    1.0000 </r>
       <r>    3.0379    1.0000 </r>
       <r>    3.0379    1.0000 </r>
       <r>    3.8845    1.0000 </r>
       <r>    4.4628    1.0000 </r>
       <r>    5.3023    1.0000 </r>
       <r>    5.3023    1.0000 </r>
       <r>    6.6223    1.0000 </r>
       <r>   17.0599    0.0000 </r>
       <r>   17.8051    0.0000 </r>
       <r>   17.8051    0.0000 </r>
       <r>   18.1503    0.0000 </r>
       <r>   18.1505    0.0000 </r>
       <r>   18.4189    0.0000 </r>
      </set>
      <set comment="kpoint 215">
       <r>    2.0967    1.0000 </r>
       <r>    2.5467    1.0000 </r>
       <r>    3.4333    1.0000 </r>
       <r>    3.8411    1.0000 </r>
       <r>    4.4174    1.0000 </r>
       <r>    4.8229    1.0000 </r>
       <r>    5.6977    1.0000 </r>
       <r>    6.1383    1.0000 </r>
       <r>   17.4002    0.0000 </r>
       <r>   17.7228    0.0000 </r>
       <r>   18.2513    0.0000 </r>
       <r>   18.4218    0.0000 </r>
       <r>   18.4737    0.0000 </r>
       <r>   18.8307    0.0000 </r>
      </set>
      <set comment="kpoint 216">
       <r>    2.5018    1.0000 </r>
       <r>    2.9487    1.0000 </r>
       <r>    2.9487    1.0000 </r>
       <r>    3.3891    1.0000 </r>
       <r>    4.7783    1.0000 </r>
       <r>    5.2139    1.0000 </r>
       <r>    5.2139    1.0000 </r>
       <r>    5.6538    1.0000 </r>
       <r>   17.7566    0.0000 </r>
       <r>   18.1125    0.0000 </r>
       <r>   18.1125    0.0000 </r>
       <r>   18.4837    0.0000 </r>
       <r>   19.1446    0.0000 </r>
       <r>   19.2211    0.0000 </r>
      </set>
      <set comment="kpoint 217">
       <r>    2.0516    1.0000 </r>
       <r>    3.3889    1.0000 </r>
       <r>    3.3889    1.0000 </r>
       <r>    3.3889    1.0000 </r>
       <r>    4.7787    1.0000 </r>
       <r>    4.7787    1.0000 </r>
       <r>    4.7787    1.0000 </r>
       <r>    6.0948    1.0000 </r>
       <r>   18.1610    0.0000 </r>
       <r>   18.1611    0.0000 </r>
       <r>   18.1611    0.0000 </r>
       <r>   18.7370    0.0000 </r>
       <r>   18.7370    0.0000 </r>
       <r>   18.7371    0.0000 </r>
      </set>
      <set comment="kpoint 218">
       <r>    2.4569    1.0000 </r>
       <r>    2.9040    1.0000 </r>
       <r>    3.7535    1.0000 </r>
       <r>    3.7535    1.0000 </r>
       <r>    4.3276    1.0000 </r>
       <r>    4.3276    1.0000 </r>
       <r>    5.1700    1.0000 </r>
       <r>    5.6101    1.0000 </r>
       <r>   18.4512    0.0000 </r>
       <r>   18.4512    0.0000 </r>
       <r>   18.8031    0.0000 </r>
       <r>   18.8035    0.0000 </r>
       <r>   19.0961    0.0000 </r>
       <r>   19.2436    0.0000 </r>
      </set>
      <set comment="kpoint 219">
       <r>    2.8593    1.0000 </r>
       <r>    3.3002    1.0000 </r>
       <r>    3.3002    1.0000 </r>
       <r>    3.7098    1.0000 </r>
       <r>    4.2825    1.0000 </r>
       <r>    4.6897    1.0000 </r>
       <r>    4.6897    1.0000 </r>
       <r>    5.1258    1.0000 </r>
       <r>   18.8060    0.0000 </r>
       <r>   19.0883    0.0000 </r>
       <r>   19.0916    0.0000 </r>
       <r>   19.4340    0.0000 </r>
       <r>   19.4580    0.0000 </r>
       <r>   19.5147    0.0000 </r>
      </set>
      <set comment="kpoint 220">
       <r>    3.2558    1.0000 </r>
       <r>    3.6660    1.0000 </r>
       <r>    3.6660    1.0000 </r>
       <r>    3.6660    1.0000 </r>
       <r>    4.2374    1.0000 </r>
       <r>    4.2374    1.0000 </r>
       <r>    4.2374    1.0000 </r>
       <r>    4.6452    1.0000 </r>
       <r>   19.7840    0.0000 </r>
       <r>   19.7875    0.0000 </r>
       <r>   19.8041    0.0000 </r>
       <r>   19.8129    0.0000 </r>
       <r>   19.8358    0.0000 </r>
       <r>   20.1633    0.0000 </r>
      </set>
     </set>
    </set>
   </array>
  </eigenvalues>
  <separator name="orbital magnetization" >
   <v name="MAGDIPOLOUT">      0.00000000      0.00000000      0.00000000</v>
  </separator>
  <dos>
   <i name="efermi">      8.58084656 </i>
   <total>
    <array>
     <dimension dim="1">gridpoints</dimension>
     <dimension dim="2">spin</dimension>
     <field>energy</field>
     <field>total</field>
     <field>integrated</field>
     <set>
      <set comment="spin 1">
       <r>    -4.9237     0.0000     0.0000 </r>
       <r>    -4.8334     0.0000     0.0000 </r>
       <r>    -4.7431     0.0000     0.0000 </r>
       <r>    -4.6528     0.0000     0.0000 </r>
       <r>    -4.5625    -0.0000    -0.0000 </r>
       <r>    -4.4723    -0.0000    -0.0000 </r>
       <r>    -4.3820    -0.0000    -0.0000 </r>
       <r>    -4.2917    -0.0000    -0.0000 </r>
       <r>    -4.2014    -0.0000    -0.0000 </r>
       <r>    -4.1111    -0.0000    -0.0000 </r>
       <r>    -4.0208    -0.0000    -0.0000 </r>
       <r>    -3.9305    -0.0000    -0.0000 </r>
       <r>    -3.8402    -0.0000    -0.0000 </r>
       <r>    -3.7499    -0.0000    -0.0000 </r>
       <r>    -3.6596    -0.0000    -0.0000 </r>
       <r>    -3.5694    -0.0000    -0.0000 </r>
       <r>    -3.4791    -0.0000    -0.0000 </r>
       <r>    -3.3888    -0.0001    -0.0000 </r>
       <r>    -3.2985    -0.0008    -0.0001 </r>
       <r>    -3.2082    -0.0027    -0.0003 </r>
       <r>    -3.1179    -0.0051    -0.0008 </r>
       <r>    -3.0276     0.0005    -0.0007 </r>
       <r>    -2.9373     0.0290     0.0019 </r>
       <r>    -2.8470     0.0847     0.0095 </r>
       <r>    -2.7567     0.1506     0.0231 </r>
       <r>    -2.6665     0.2067     0.0418 </r>
       <r>    -2.5762     0.2483     0.0642 </r>
       <r>    -2.4859     0.2818     0.0896 </r>
       <r>    -2.3956     0.3110     0.1177 </r>
       <r>    -2.3053     0.3368     0.1481 </r>
       <r>    -2.2150     0.3635     0.1810 </r>
       <r>    -2.1247     0.3879     0.2160 </r>
       <r>    -2.0344     0.4060     0.2526 </r>
       <r>    -1.9441     0.4291     0.2914 </r>
       <r>    -1.8538     0.4554     0.3325 </r>
       <r>    -1.7636     0.4694     0.3749 </r>
       <r>    -1.6733     0.4809     0.4183 </r>
       <r>    -1.5830     0.5074     0.4641 </r>
       <r>    -1.4927     0.5363     0.5125 </r>
       <r>    -1.4024     0.5408     0.5613 </r>
       <r>    -1.3121     0.5406     0.6102 </r>
       <r>    -1.2218     0.5737     0.6620 </r>
       <r>    -1.1315     0.6101     0.7170 </r>
       <r>    -1.0412     0.6099     0.7721 </r>
       <r>    -0.9509     0.6027     0.8265 </r>
       <r>    -0.8607     0.6227     0.8828 </r>
       <r>    -0.7704     0.6570     0.9421 </r>
       <r>    -0.6801     0.6822     1.0037 </r>
       <r>    -0.5898     0.6893     1.0659 </r>
       <r>    -0.4995     0.6768     1.1270 </r>
       <r>    -0.4092     0.6715     1.1876 </r>
       <r>    -0.3189     0.7161     1.2523 </r>
       <r>    -0.2286     0.7755     1.3223 </r>
       <r>    -0.1383     0.7721     1.3920 </r>
       <r>    -0.0480     0.7258     1.4576 </r>
       <r>     0.0422     0.7260     1.5231 </r>
       <r>     0.1325     0.7847     1.5940 </r>
       <r>     0.2228     0.8248     1.6684 </r>
       <r>     0.3131     0.8244     1.7429 </r>
       <r>     0.4034     0.8241     1.8173 </r>
       <r>     0.4937     0.8239     1.8917 </r>
       <r>     0.5840     0.8171     1.9655 </r>
       <r>     0.6743     0.8248     2.0399 </r>
       <r>     0.7646     0.8635     2.1179 </r>
       <r>     0.8549     0.9188     2.2009 </r>
       <r>     0.9451     0.9385     2.2856 </r>
       <r>     1.0354     0.9014     2.3670 </r>
       <r>     1.1257     0.8515     2.4439 </r>
       <r>     1.2160     0.8541     2.5210 </r>
       <r>     1.3063     0.9361     2.6055 </r>
       <r>     1.3966     1.0204     2.6976 </r>
       <r>     1.4869     1.0096     2.7888 </r>
       <r>     1.5772     0.9419     2.8738 </r>
       <r>     1.6675     0.9263     2.9575 </r>
       <r>     1.7578     0.9708     3.0451 </r>
       <r>     1.8480     0.9993     3.1354 </r>
       <r>     1.9383     0.9988     3.2255 </r>
       <r>     2.0286     1.0140     3.3171 </r>
       <r>     2.1189     1.0519     3.4121 </r>
       <r>     2.2092     1.0860     3.5101 </r>
       <r>     2.2995     1.0828     3.6079 </r>
       <r>     2.3898     1.0289     3.7008 </r>
       <r>     2.4801     0.9786     3.7891 </r>
       <r>     2.5704     1.0208     3.8813 </r>
       <r>     2.6606     1.1283     3.9832 </r>
       <r>     2.7509     1.1791     4.0897 </r>
       <r>     2.8412     1.1695     4.1952 </r>
       <r>     2.9315     1.1448     4.2986 </r>
       <r>     3.0218     1.0849     4.3966 </r>
       <r>     3.1121     1.0411     4.4906 </r>
       <r>     3.2024     1.1031     4.5902 </r>
       <r>     3.2927     1.2127     4.6997 </r>
       <r>     3.3830     1.2426     4.8119 </r>
       <r>     3.4733     1.2063     4.9208 </r>
       <r>     3.5635     1.1939     5.0286 </r>
       <r>     3.6538     1.2099     5.1378 </r>
       <r>     3.7441     1.2370     5.2495 </r>
       <r>     3.8344     1.2623     5.3635 </r>
       <r>     3.9247     1.2360     5.4751 </r>
       <r>     4.0150     1.1675     5.5805 </r>
       <r>     4.1053     1.1528     5.6845 </r>
       <r>     4.1956     1.2417     5.7967 </r>
       <r>     4.2859     1.3449     5.9181 </r>
       <r>     4.3762     1.3509     6.0401 </r>
       <r>     4.4664     1.2731     6.1550 </r>
       <r>     4.5567     1.1995     6.2633 </r>
       <r>     4.6470     1.1880     6.3706 </r>
       <r>     4.7373     1.2428     6.4828 </r>
       <r>     4.8276     1.3470     6.6044 </r>
       <r>     4.9179     1.4498     6.7353 </r>
       <r>     5.0082     1.4542     6.8666 </r>
       <r>     5.0985     1.3516     6.9887 </r>
       <r>     5.1888     1.2767     7.1039 </r>
       <r>     5.2791     1.3134     7.2225 </r>
       <r>     5.3693     1.4118     7.3500 </r>
       <r>     5.4596     1.4997     7.4854 </r>
       <r>     5.5499     1.5361     7.6241 </r>
       <r>     5.6402     1.5155     7.7609 </r>
       <r>     5.7305     1.4735     7.8940 </r>
       <r>     5.8208     1.4392     8.0239 </r>
       <r>     5.9111     1.4284     8.1529 </r>
       <r>     6.0014     1.4640     8.2851 </r>
       <r>     6.0917     1.4971     8.4202 </r>
       <r>     6.1820     1.4590     8.5520 </r>
       <r>     6.2722     1.3948     8.6779 </r>
       <r>     6.3625     1.3663     8.8013 </r>
       <r>     6.4528     1.3460     8.9228 </r>
       <r>     6.5431     1.3201     9.0420 </r>
       <r>     6.6334     1.3519     9.1641 </r>
       <r>     6.7237     1.4062     9.2910 </r>
       <r>     6.8140     1.3836     9.4160 </r>
       <r>     6.9043     1.3394     9.5369 </r>
       <r>     6.9946     1.3250     9.6565 </r>
       <r>     7.0849     1.3185     9.7756 </r>
       <r>     7.1751     1.3902     9.9011 </r>
       <r>     7.2654     1.5399    10.0401 </r>
       <r>     7.3557     1.6022    10.1848 </r>
       <r>     7.4460     1.5239    10.3224 </r>
       <r>     7.5363     1.4509    10.4534 </r>
       <r>     7.6266     1.4755    10.5866 </r>
       <r>     7.7169     1.5325    10.7250 </r>
       <r>     7.8072     1.5628    10.8661 </r>
       <r>     7.8975     1.5605    11.0070 </r>
       <r>     7.9878     1.5025    11.1426 </r>
       <r>     8.0780     1.4117    11.2701 </r>
       <r>     8.1683     1.4025    11.3967 </r>
       <r>     8.2586     1.4929    11.5315 </r>
       <r>     8.3489     1.5442    11.6710 </r>
       <r>     8.4392     1.4871    11.8052 </r>
       <r>     8.5295     1.3910    11.9308 </r>
       <r>     8.6198     1.3499    12.0527 </r>
       <r>     8.7101     1.4302    12.1818 </r>
       <r>     8.8004     1.6336    12.3293 </r>
       <r>     8.8907     1.8332    12.4949 </r>
       <r>     8.9809     1.8806    12.6647 </r>
       <r>     9.0712     1.7787    12.8253 </r>
       <r>     9.1615     1.6232    12.9718 </r>
       <r>     9.2518     1.5031    13.1075 </r>
       <r>     9.3421     1.4855    13.2417 </r>
       <r>     9.4324     1.5364    13.3804 </r>
       <r>     9.5227     1.5661    13.5218 </r>
       <r>     9.6130     1.6017    13.6664 </r>
       <r>     9.7033     1.6746    13.8176 </r>
       <r>     9.7936     1.7032    13.9714 </r>
       <r>     9.8838     1.6860    14.1236 </r>
       <r>     9.9741     1.7171    14.2786 </r>
       <r>    10.0644     1.7689    14.4384 </r>
       <r>    10.1547     1.7042    14.5922 </r>
       <r>    10.2450     1.5323    14.7306 </r>
       <r>    10.3353     1.4530    14.8618 </r>
       <r>    10.4256     1.5384    15.0007 </r>
       <r>    10.5159     1.6535    15.1500 </r>
       <r>    10.6062     1.7232    15.3056 </r>
       <r>    10.6964     1.8048    15.4685 </r>
       <r>    10.7867     1.9224    15.6421 </r>
       <r>    10.8770     1.9337    15.8167 </r>
       <r>    10.9673     1.7183    15.9718 </r>
       <r>    11.0576     1.4912    16.1065 </r>
       <r>    11.1479     1.5502    16.2464 </r>
       <r>    11.2382     1.7835    16.4075 </r>
       <r>    11.3285     1.8884    16.5780 </r>
       <r>    11.4188     1.8693    16.7468 </r>
       <r>    11.5091     1.8479    16.9136 </r>
       <r>    11.5993     1.7690    17.0733 </r>
       <r>    11.6896     1.6533    17.2226 </r>
       <r>    11.7799     1.6749    17.3738 </r>
       <r>    11.8702     1.8168    17.5379 </r>
       <r>    11.9605     1.8685    17.7066 </r>
       <r>    12.0508     1.8448    17.8732 </r>
       <r>    12.1411     1.9294    18.0474 </r>
       <r>    12.2314     2.0302    18.2307 </r>
       <r>    12.3217     1.9322    18.4051 </r>
       <r>    12.4120     1.7374    18.5620 </r>
       <r>    12.5022     1.7049    18.7159 </r>
       <r>    12.5925     1.8259    18.8808 </r>
       <r>    12.6828     1.9061    19.0529 </r>
       <r>    12.7731     1.8992    19.2244 </r>
       <r>    12.8634     1.8782    19.3940 </r>
       <r>    12.9537     1.8585    19.5618 </r>
       <r>    13.0440     1.8655    19.7302 </r>
       <r>    13.1343     2.0003    19.9108 </r>
       <r>    13.2246     2.2028    20.1097 </r>
       <r>    13.3149     2.2074    20.3090 </r>
       <r>    13.4051     1.9641    20.4863 </r>
       <r>    13.4954     1.7528    20.6446 </r>
       <r>    13.5857     1.7558    20.8031 </r>
       <r>    13.6760     1.8803    20.9729 </r>
       <r>    13.7663     2.0174    21.1550 </r>
       <r>    13.8566     2.1412    21.3484 </r>
       <r>    13.9469     2.1802    21.5452 </r>
       <r>    14.0372     2.0954    21.7344 </r>
       <r>    14.1275     2.0414    21.9187 </r>
       <r>    14.2178     2.1311    22.1111 </r>
       <r>    14.3080     2.2147    22.3111 </r>
       <r>    14.3983     2.1992    22.5097 </r>
       <r>    14.4886     2.2210    22.7102 </r>
       <r>    14.5789     2.3305    22.9206 </r>
       <r>    14.6692     2.3787    23.1354 </r>
       <r>    14.7595     2.2566    23.3392 </r>
       <r>    14.8498     2.0847    23.5274 </r>
       <r>    14.9401     2.0621    23.7136 </r>
       <r>    15.0304     2.1992    23.9121 </r>
       <r>    15.1207     2.3135    24.1210 </r>
       <r>    15.2109     2.2610    24.3252 </r>
       <r>    15.3012     2.0986    24.5147 </r>
       <r>    15.3915     1.9352    24.6894 </r>
       <r>    15.4818     1.8520    24.8566 </r>
       <r>    15.5721     1.9137    25.0294 </r>
       <r>    15.6624     2.0235    25.2121 </r>
       <r>    15.7527     2.0449    25.3967 </r>
       <r>    15.8430     2.0113    25.5783 </r>
       <r>    15.9333     1.9546    25.7548 </r>
       <r>    16.0236     1.7582    25.9135 </r>
       <r>    16.1138     1.4123    26.0411 </r>
       <r>    16.2041     1.1893    26.1484 </r>
       <r>    16.2944     1.3236    26.2679 </r>
       <r>    16.3847     1.6129    26.4136 </r>
       <r>    16.4750     1.6331    26.5610 </r>
       <r>    16.5653     1.3416    26.6822 </r>
       <r>    16.6556     1.0532    26.7772 </r>
       <r>    16.7459     0.9229    26.8606 </r>
       <r>    16.8362     0.8948    26.9414 </r>
       <r>    16.9265     0.8978    27.0224 </r>
       <r>    17.0167     0.8603    27.1001 </r>
       <r>    17.1070     0.7834    27.1708 </r>
       <r>    17.1973     0.7423    27.2379 </r>
       <r>    17.2876     0.7354    27.3043 </r>
       <r>    17.3779     0.7025    27.3677 </r>
       <r>    17.4682     0.6419    27.4256 </r>
       <r>    17.5585     0.5747    27.4775 </r>
       <r>    17.6488     0.5222    27.5247 </r>
       <r>    17.7391     0.5045    27.5702 </r>
       <r>    17.8293     0.4654    27.6122 </r>
       <r>    17.9196     0.3648    27.6452 </r>
       <r>    18.0099     0.2981    27.6721 </r>
       <r>    18.1002     0.3502    27.7037 </r>
       <r>    18.1905     0.4306    27.7426 </r>
       <r>    18.2808     0.4131    27.7799 </r>
       <r>    18.3711     0.3430    27.8109 </r>
       <r>    18.4614     0.3007    27.8380 </r>
       <r>    18.5517     0.2460    27.8602 </r>
       <r>    18.6420     0.1771    27.8762 </r>
       <r>    18.7322     0.1661    27.8912 </r>
       <r>    18.8225     0.1905    27.9084 </r>
       <r>    18.9128     0.1730    27.9240 </r>
       <r>    19.0031     0.1294    27.9357 </r>
       <r>    19.0934     0.1170    27.9463 </r>
       <r>    19.1837     0.1195    27.9571 </r>
       <r>    19.2740     0.0982    27.9660 </r>
       <r>    19.3643     0.0725    27.9725 </r>
       <r>    19.4546     0.0677    27.9786 </r>
       <r>    19.5449     0.0619    27.9842 </r>
       <r>    19.6351     0.0405    27.9879 </r>
       <r>    19.7254     0.0295    27.9905 </r>
       <r>    19.8157     0.0356    27.9937 </r>
       <r>    19.9060     0.0329    27.9967 </r>
       <r>    19.9963     0.0164    27.9982 </r>
       <r>    20.0866     0.0058    27.9987 </r>
       <r>    20.1769     0.0059    27.9992 </r>
       <r>    20.2672     0.0061    27.9998 </r>
       <r>    20.3575     0.0029    28.0000 </r>
       <r>    20.4478     0.0002    28.0001 </r>
       <r>    20.5380    -0.0004    28.0000 </r>
       <r>    20.6283    -0.0002    28.0000 </r>
       <r>    20.7186    -0.0000    28.0000 </r>
       <r>    20.8089    -0.0000    28.0000 </r>
       <r>    20.8992    -0.0000    28.0000 </r>
       <r>    20.9895    -0.0000    28.0000 </r>
       <r>    21.0798    -0.0000    28.0000 </r>
       <r>    21.1701    -0.0000    28.0000 </r>
       <r>    21.2604    -0.0000    28.0000 </r>
       <r>    21.3507    -0.0000    28.0000 </r>
       <r>    21.4409    -0.0000    28.0000 </r>
       <r>    21.5312     0.0000    28.0000 </r>
       <r>    21.6215     0.0000    28.0000 </r>
       <r>    21.7118     0.0000    28.0000 </r>
       <r>    21.8021     0.0000    28.0000 </r>
       <r>    21.8924     0.0000    28.0000 </r>
       <r>    21.9827     0.0000    28.0000 </r>
       <r>    22.0730     0.0000    28.0000 </r>
       <r>    22.1633     0.0000    28.0000 </r>
      </set>
     </set>
    </array>
   </total>
  </dos>
 </calculation>
 <structure name="finalpos" >
  <crystal>
   <varray name="basis" >
    <v>       3.97046003       0.00000000       0.00000000 </v>
    <v>      -0.00000000       3.97046003       0.00000000 </v>
    <v>       0.00000000       0.00000000       3.97046003 </v>
   </varray>
   <i name="volume">     62.59252700 </i>
   <varray name="rec_basis" >
    <v>       0.25185998       0.00000000      -0.00000000 </v>
    <v>       0.00000000       0.25185998       0.00000000 </v>
    <v>      -0.00000000      -0.00000000       0.25185998 </v>
   </varray>
  </crystal>
  <varray name="positions" >
   <v>       0.00000000       0.00000000       0.00000000 </v>
   <v>       0.00000000       0.50000000       0.50000000 </v>
   <v>       0.50000000       0.00000000       0.50000000 </v>
   <v>       0.50000000       0.50000000       0.00000000 </v>
  </varray>
 </structure>
</modeling>
