
4 atoms
1 atom types
   0.0000000000    4.4562045004 xlo xhi
   0.0000000000    4.4562045004 ylo yhi
   0.0000000000    4.4562045004 zlo zhi
   0.0000000000   -0.0000000000   -0.0000000000 xy xz yz

Atoms # atomic

     1      1    0.0000000000    0.0000000000    0.0000000000
     2      1    0.0000000000    2.2281022502    2.2281022502
     3      1    2.2281022502    2.2281022502    0.0000000000
     4      1    2.2281022502    0.0000000000    2.2281022502
