ITEM: TIMESTEP
0
ITEM: NUMBER OF ATOMS
4
ITEM: BOX BOUNDS xy xz yz pp pp pp
0.0000000000000000e+00 4.4562045004000002e+00 0.0000000000000000e+00
0.0000000000000000e+00 4.4562045004000002e+00 -0.0000000000000000e+00
0.0000000000000000e+00 4.4562045004000002e+00 -0.0000000000000000e+00
ITEM: ATOMS id type xs ys zs fx fy fz
1 1 0 0 0 5.55112e-17 -5.55112e-17 2.77556e-16
4 1 0.5 0 0.5 -4.16334e-17 5.37764e-17 -6.76542e-17
3 1 0.5 0.5 0 -4.16334e-17 -5.72459e-17 2.65413e-16
2 1 0 0.5 0.5 5.55112e-17 -5.55112e-17 5.55112e-17
ITEM: TIMESTEP
1
ITEM: NUMBER OF ATOMS
4
ITEM: BOX BOUNDS xy xz yz pp pp pp
0.0000000000000000e+00 4.4562045004000002e+00 0.0000000000000000e+00
0.0000000000000000e+00 4.4562045004000002e+00 -0.0000000000000000e+00
0.0000000000000000e+00 4.4562045004000002e+00 -0.0000000000000000e+00
ITEM: ATOMS id type xs ys zs fx fy fz
1 1 0 0 0 5.55112e-17 -5.55112e-17 2.77556e-16
4 1 0.5 0 0.5 -4.16334e-17 5.37764e-17 -6.76542e-17
3 1 0.5 0.5 0 -4.16334e-17 -5.72459e-17 2.65413e-16
2 1 0 0.5 0.5 5.55112e-17 -5.55112e-17 5.55112e-17
