ITEM: TIMESTEP
0
ITEM: NUMBER OF ATOMS
4
ITEM: BOX BOUNDS xy xz yz pp pp pp
0.0000000000000000e+00 4.0499988870000001e+00 0.0000000000000000e+00
0.0000000000000000e+00 4.0904988758999998e+00 0.0000000000000000e+00
0.0000000000000000e+00 4.0497963820000002e+00 4.0499988899999999e-02
ITEM: ATOMS id type xs ys zs fx fy fz
1 1 0 0 0 0 -1.65279e-10 1.71925e-11
2 1 0 0.5 0.5 0 1.65284e-10 -1.71924e-11
3 1 0.5 0.5 0 0 -1.65257e-10 1.71923e-11
4 1 0.5 1 0.5 0 1.65251e-10 -1.71924e-11
ITEM: TIMESTEP
2
ITEM: NUMBER OF ATOMS
4
ITEM: BOX BOUNDS xy xz yz pp pp pp
0.0000000000000000e+00 4.0499988870000001e+00 0.0000000000000000e+00
0.0000000000000000e+00 4.0904988758999998e+00 0.0000000000000000e+00
0.0000000000000000e+00 4.0497963820000002e+00 4.0499988899999999e-02
ITEM: ATOMS id type xs ys zs fx fy fz
1 1 0 1 0 -5.55112e-17 3.25217e-15 2.48933e-15
2 1 0 0.5 0.5 0 5.98566e-15 -2.2005e-15
3 1 0.5 0.5 0 1.01962e-16 4.90883e-15 1.26982e-15
4 1 0.5 1 0.5 -4.64445e-17 -1.41454e-14 -1.56212e-15
