
4 atoms
1 atom types
   0.0000000000    3.5800289347 xlo xhi
   0.0000000000    3.5800289347 ylo yhi
   0.0000000000    3.5800289347 zlo zhi
   0.0000000000   -0.0000000000   -0.0000000000 xy xz yz

Atoms # atomic

     1      1    0.0000000000    0.0000000000    0.0000000000
     2      1    0.0000000000    1.7900144673    1.7900144673
     3      1    1.7900144673    1.7900144673    0.0000000000
     4      1    1.7900144673    0.0000000000    1.7900144673
