ITEM: TIMESTEP
0
ITEM: NUMBER OF ATOMS
4
ITEM: BOX BOUNDS xy xz yz pp pp pp
0.0000000000000000e+00 3.5800289347000001e+00 0.0000000000000000e+00
0.0000000000000000e+00 3.5800289347000001e+00 -0.0000000000000000e+00
0.0000000000000000e+00 3.5800289347000001e+00 -0.0000000000000000e+00
ITEM: ATOMS id type xs ys zs fx fy fz
1 1 0 0 0 -7.30759e-10 -7.30759e-10 -7.3076e-10
3 1 0.5 0.5 0 7.30759e-10 7.30759e-10 -7.30758e-10
2 1 0 0.5 0.5 -7.30759e-10 7.30759e-10 7.30758e-10
4 1 0.5 0 0.5 7.30759e-10 -7.30759e-10 7.30759e-10
ITEM: TIMESTEP
1
ITEM: NUMBER OF ATOMS
4
ITEM: BOX BOUNDS xy xz yz pp pp pp
0.0000000000000000e+00 3.5800289347000001e+00 0.0000000000000000e+00
0.0000000000000000e+00 3.5800289347000001e+00 -0.0000000000000000e+00
0.0000000000000000e+00 3.5800289347000001e+00 -0.0000000000000000e+00
ITEM: ATOMS id type xs ys zs fx fy fz
2 1 1 0.5 0.5 5.76796e-16 8.07861e-15 1.17458e-14
3 1 0.5 0.5 1 2.44249e-15 7.75074e-15 -7.99361e-15
4 1 0.5 1 0.5 2.88658e-15 -9.99201e-15 1.12133e-14
1 1 1 1 1 -5.84689e-15 -6.41848e-15 -4.34982e-15
