
4 atoms
1 atom types
   0.0000000000    4.1164041138 xlo xhi
   0.0000000000    4.1164041138 ylo yhi
   0.0000000000    4.1164041138 zlo zhi
   0.0000000000    0.0000000000    0.0000000000 xy xz yz

Atoms # atomic

     1      1    0.0000000000    0.0000000000    0.0000000000
     2      1    0.0000000000    2.0582020569    2.0582020569
     3      1    2.0582020569    2.0582020569    0.0000000000
     4      1    2.0582020569    0.0000000000    2.0582020569
