ITEM: TIMESTEP
0
ITEM: NUMBER OF ATOMS
4
ITEM: BOX BOUNDS xy xz yz pp pp pp
0.0000000000000000e+00 4.1164041137999998e+00 0.0000000000000000e+00
0.0000000000000000e+00 4.1164041137999998e+00 0.0000000000000000e+00
0.0000000000000000e+00 4.1164041137999998e+00 0.0000000000000000e+00
ITEM: ATOMS id type xs ys zs fx fy fz
1 1 0 0 0 0 -1.38778e-17 1.38778e-17
4 1 0.5 0 0.5 0 -1.38778e-17 1.38778e-17
3 1 0.5 0.5 0 0 -1.38778e-17 1.38778e-17
2 1 0 0.5 0.5 0 -1.38778e-17 1.38778e-17
ITEM: TIMESTEP
1
ITEM: NUMBER OF ATOMS
4
ITEM: BOX BOUNDS xy xz yz pp pp pp
0.0000000000000000e+00 4.1164041137999998e+00 0.0000000000000000e+00
0.0000000000000000e+00 4.1164041137999998e+00 0.0000000000000000e+00
0.0000000000000000e+00 4.1164041137999998e+00 0.0000000000000000e+00
ITEM: ATOMS id type xs ys zs fx fy fz
1 1 0 0 0 0 -1.38778e-17 1.38778e-17
4 1 0.5 0 0.5 0 -1.38778e-17 1.38778e-17
3 1 0.5 0.5 0 0 -1.38778e-17 1.38778e-17
2 1 0 0.5 0.5 0 -1.38778e-17 1.38778e-17
