ITEM: TIMESTEP
0
ITEM: NUMBER OF ATOMS
4
ITEM: BOX BOUNDS xy xz yz pp pp pp
0.0000000000000000e+00 4.0319999997000000e+00 0.0000000000000000e+00
0.0000000000000000e+00 4.0723199997000004e+00 0.0000000000000000e+00
0.0000000000000000e+00 4.0317983946000000e+00 4.0320000000000002e-02
ITEM: ATOMS id type xs ys zs fx fy fz
1 1 0 0 0 -2.31339e-10 -2.3142e-10 8.60427e-12
2 1 0 0.5 0.5 -2.3134e-10 2.31419e-10 -8.60427e-12
3 1 0.5 0.5 0 2.31339e-10 2.3142e-10 -8.60424e-12
4 1 0.5 0 0.5 2.3134e-10 -2.3142e-10 8.60425e-12
ITEM: TIMESTEP
1
ITEM: NUMBER OF ATOMS
4
ITEM: BOX BOUNDS xy xz yz pp pp pp
0.0000000000000000e+00 4.0319999997000000e+00 0.0000000000000000e+00
0.0000000000000000e+00 4.0723199997000004e+00 0.0000000000000000e+00
0.0000000000000000e+00 4.0317983946000000e+00 4.0320000000000002e-02
ITEM: ATOMS id type xs ys zs fx fy fz
3 1 0.5 0.5 1 2.76008e-13 -1.23275e-13 4.11188e-12
4 1 0.5 1 0.5 2.77514e-13 1.24262e-13 -4.10948e-12
2 1 1 0.5 0.5 -2.76904e-13 -1.28805e-13 4.11267e-12
1 1 1 1 2.30349e-13 -2.76626e-13 1.27847e-13 -4.1151e-12
