 vasp.5.4.4.18Apr17-6-g9f103f2a35 (build Nov 07 2022 11:18:25) complex          
  
 executed on             LinuxIFC date 2024.05.28  09:34:17
 running on   32 total cores
 distrk:  each k-point on   32 cores,    1 groups
 distr:  one band on NCORES_PER_BAND=   1 cores,   32 groups


--------------------------------------------------------------------------------------------------------


 INCAR:
 POTCAR:    PAW_PBE Al 04Jan2001                  

 ----------------------------------------------------------------------------- 
|                                                                             |
|           W    W    AA    RRRRR   N    N  II  N    N   GGGG   !!!           |
|           W    W   A  A   R    R  NN   N  II  NN   N  G    G  !!!           |
|           W    W  A    A  R    R  N N  N  II  N N  N  G       !!!           |
|           W WW W  AAAAAA  RRRRR   N  N N  II  N  N N  G  GGG   !            |
|           WW  WW  A    A  R   R   N   NN  II  N   NN  G    G                |
|           W    W  A    A  R    R  N    N  II  N    N   GGGG   !!!           |
|                                                                             |
|      For optimal performance we recommend to set                            |
|        NCORE= 4 - approx SQRT( number of cores)                             |
|      NCORE specifies how many cores store one orbital (NPAR=cpu/NCORE).     |
|      This setting can  greatly improve the performance of VASP for DFT.     |
|      The default,   NCORE=1            might be grossly inefficient         |
|      on modern multi-core architectures or massively parallel machines.     |
|      Do your own testing !!!!                                               |
|      Unfortunately you need to use the default for GW and RPA calculations. |
|      (for HF NCORE is supported but not extensively tested yet)             |
|                                                                             |
 ----------------------------------------------------------------------------- 

 POTCAR:    PAW_PBE Al 04Jan2001                  
   SHA256 =  17880443556af62b473fe41b62a467bd001ad55d2cabe504a3f22e34d4e9db96 Al
   COPYR  = (c) Copyright 04Jan2001 Georg Kresse                                
   COPYR  = This file is part of the software VASP. Any use, copying, and all ot
   COPYR  = If you do not have a valid VASP license, you may not use, copy or di
   VRHFIN =Al: s2p1                                                             
   LEXCH  = PE                                                                  
   EATOM  =    53.5387 eV,    3.9350 Ry                                         
                                                                                
   TITEL  = PAW_PBE Al 04Jan2001                                                
   LULTRA =        F    use ultrasoft PP ?                                      
   IUNSCR =        1    unscreen: 0-lin 1-nonlin 2-no                           
   RPACOR =    1.500    partial core radius                                     
   POMASS =   26.981; ZVAL   =    3.000    mass and valenz                      
   RCORE  =    1.900    outmost cutoff radius                                   
   RWIGS  =    2.650; RWIGS  =    1.402    wigner-seitz radius (au A)           
   ENMAX  =  240.300; ENMIN  =  180.225 eV                                      
   ICORE  =        2    local potential                                         
   LCOR   =        T    correct aug charges                                     
   LPAW   =        T    paw PP                                                  
   EAUG   =  291.052                                                            
   DEXC   =    0.000                                                            
   RMAX   =    1.939    core radius for proj-oper                               
   RAUG   =    1.300    factor for augmentation sphere                          
   RDEP   =    1.966    radius for radial grids                                 
   RDEPT  =    1.856    core radius for aug-charge                              
                                                                                
   Atomic configuration                                                         
    6 entries                                                                   
     n  l   j            E        occ.                                          
     1  0  0.50     -1511.1048   2.0000                                         
     2  0  0.50      -108.1629   2.0000                                         
     2  1  1.50       -69.6402   6.0000                                         
     3  0  0.50        -7.7528   2.0000                                         
     3  1  1.50        -2.7121   1.0000                                         
     3  2  2.50        -2.7212   0.0000                                         
   Description                                                                  
     l       E           TYP  RCUT    TYP  RCUT                                 
     0     -7.7528455     23  1.900                                             
     0     -3.3096929     23  1.900                                             
     1     -2.7120682     23  1.900                                             
     1     13.6058260     23  1.900                                             
     2     -2.7211652      7  1.900                                             
  local pseudopotential read in
  partial core-charges read in
  partial kinetic energy density read in
  atomic valenz-charges read in
  non local Contribution for L=           0  read in
    real space projection operators read in
  non local Contribution for L=           0  read in
    real space projection operators read in
  non local Contribution for L=           1  read in
    real space projection operators read in
  non local Contribution for L=           1  read in
    real space projection operators read in
    PAW grid and wavefunctions read in
 
   number of l-projection  operators is LMAX  =           4
   number of lm-projection operators is LMMAX =           8
 

 ----------------------------------------------------------------------------- 
|                                                                             |
|  ADVICE TO THIS USER RUNNING 'VASP/VAMP'   (HEAR YOUR MASTER'S VOICE ...):  |
|                                                                             |
|      You have a (more or less) 'small supercell' and for smaller cells      |
|      it is recommended  to use the reciprocal-space projection scheme!      |
|      The real space optimization is not  efficient for small cells and it   |
|      is also less accurate ...                                              |
|      Therefore set LREAL=.FALSE. in the  INCAR file                         |
|                                                                             |
 ----------------------------------------------------------------------------- 

 Optimization of the real space projectors (new method)

 maximal supplied QI-value         = 19.84
 optimisation between [QCUT,QGAM] = [ 10.12, 20.44] = [ 28.68,116.96] Ry 
 Optimized for a Real-space Cutoff    1.38 Angstroem

   l    n(q)    QCUT    max X(q) W(low)/X(q) W(high)/X(q)  e(spline) 
   0      8    10.119   176.870    0.39E-04    0.93E-04    0.54E-07
   0      8    10.119   105.762    0.37E-04    0.91E-04    0.53E-07
   1      8    10.119    55.370    0.18E-03    0.13E-03    0.19E-06
   1      8    10.119    20.208    0.17E-03    0.12E-03    0.18E-06
  PAW_PBE Al 04Jan2001                  :
 energy of atom  1       EATOM=  -53.5387
 kinetic energy error for atom=    0.0005 (will be added to EATOM!!)
 
 
 POSCAR: Al6                                     
  positions in direct lattice
  No initial velocities read in
 exchange correlation table for  LEXCH =        8
   RHO(1)=    0.500       N(1)  =     2000
   RHO(2)=  100.500       N(2)  =     4000
 


--------------------------------------------------------------------------------------------------------


 ion  position               nearest neighbor table
   1  0.000  0.000  0.875-   4 2.86   4 2.86   2 2.86   2 2.86   2 2.86   4 2.86   2 2.86   4 2.86

   2  0.500  0.500  0.958-   1 2.86   1 2.86   1 2.86   1 2.86
   3  0.000  0.000  0.708-   4 2.86   4 2.86   6 2.86   6 2.86   4 2.86   4 2.86   6 2.86   6 2.86

   4  0.500  0.500  0.792-   3 2.86   3 2.86   1 2.86   1 2.86   3 2.86   3 2.86   1 2.86   1 2.86

   5  0.000  0.000  0.542-   6 2.86   6 2.86   6 2.86   6 2.86
   6  0.500  0.500  0.625-   5 2.86   5 2.86   3 2.86   3 2.86   3 2.86   5 2.86   3 2.86   5 2.86

 
  LATTYP: Found a simple monoclinic cell.
 ALAT       =    24.4024590158
 B/A-ratio  =     0.1170355239
 C/A-ratio  =     1.9896522853
 COS(beta)  =    -0.9982923852
  
  Lattice vectors:
  
 A1 = (  -2.8659545748,   0.0000000000, -24.2335781591)
 A2 = (   0.0000000000,  -2.8559545748,   0.0000000000)
 A3 = (   2.8759545748,   0.0000000000,  48.4671563182)


Analysis of symmetry for initial positions (statically):
=====================================================================
 Subroutine PRICEL returns:
 Original cell was already a primitive cell.
 

 Routine SETGRP: Setting up the symmetry group for a 
 simple monoclinic supercell.


 Subroutine GETGRP returns: Found  4 space group operations
 (whereof  2 operations were pure point group operations)
 out of a pool of  4 trial point group operations.


The static configuration has the point symmetry C_1h.
 The point group associated with its full space group is C_2h.


Analysis of symmetry for dynamics (positions and initial velocities):
=====================================================================
 Subroutine PRICEL returns:
 Original cell was already a primitive cell.
 

 Routine SETGRP: Setting up the symmetry group for a 
 simple monoclinic supercell.


 Subroutine GETGRP returns: Found  4 space group operations
 (whereof  2 operations were pure point group operations)
 out of a pool of  4 trial point group operations.


The dynamic configuration has the point symmetry C_1h.
 The point group associated with its full space group is C_2h.


 Subroutine INISYM returns: Found  4 space group operations
 (whereof  2 operations are pure point group operations),
 and found     1 'primitive' translations

 
 
 KPOINTS: Automatic kpoint scheme                 

Automatic generation of k-mesh.
Space group operators:
 irot       det(A)        alpha          n_x          n_y          n_z        tau_x        tau_y        tau_z
    1     1.000000     0.000000     1.000000     0.000000     0.000000     0.000000     0.000000     0.000000
    2    -1.000000   179.999999     0.000000     1.000000     0.000000     0.000000     0.000000     0.000000
    3    -1.000000     0.000000     1.000000     0.000000     0.000000    -0.500000    -0.500000    -0.500000
    4     1.000000   179.999999     0.000000     1.000000     0.000000    -0.500000    -0.500000    -0.500000
 
 Subroutine IBZKPT returns following result:
 ===========================================
 
 Found    784 irreducible k-points:
 
 Following reciprocal coordinates:
            Coordinates               Weight
  0.017857  0.017857  0.125000      4.000000
  0.053571  0.017857  0.125000      4.000000
  0.089286  0.017857  0.125000      4.000000
  0.125000  0.017857  0.125000      4.000000
  0.160714  0.017857  0.125000      4.000000
  0.196429  0.017857  0.125000      4.000000
  0.232143  0.017857  0.125000      4.000000
  0.267857  0.017857  0.125000      4.000000
  0.303571  0.017857  0.125000      4.000000
  0.339286  0.017857  0.125000      4.000000
  0.375000  0.017857  0.125000      4.000000
  0.410714  0.017857  0.125000      4.000000
  0.446429  0.017857  0.125000      4.000000
  0.482143  0.017857  0.125000      4.000000
 -0.482143  0.017857  0.125000      4.000000
 -0.446429  0.017857  0.125000      4.000000
 -0.410714  0.017857  0.125000      4.000000
 -0.375000  0.017857  0.125000      4.000000
 -0.339286  0.017857  0.125000      4.000000
 -0.303571  0.017857  0.125000      4.000000
 -0.267857  0.017857  0.125000      4.000000
 -0.232143  0.017857  0.125000      4.000000
 -0.196429  0.017857  0.125000      4.000000
 -0.160714  0.017857  0.125000      4.000000
 -0.125000  0.017857  0.125000      4.000000
 -0.089286  0.017857  0.125000      4.000000
 -0.053571  0.017857  0.125000      4.000000
 -0.017857  0.017857  0.125000      4.000000
  0.017857  0.053571  0.125000      4.000000
  0.053571  0.053571  0.125000      4.000000
  0.089286  0.053571  0.125000      4.000000
  0.125000  0.053571  0.125000      4.000000
  0.160714  0.053571  0.125000      4.000000
  0.196429  0.053571  0.125000      4.000000
  0.232143  0.053571  0.125000      4.000000
  0.267857  0.053571  0.125000      4.000000
  0.303571  0.053571  0.125000      4.000000
  0.339286  0.053571  0.125000      4.000000
  0.375000  0.053571  0.125000      4.000000
  0.410714  0.053571  0.125000      4.000000
  0.446429  0.053571  0.125000      4.000000
  0.482143  0.053571  0.125000      4.000000
 -0.482143  0.053571  0.125000      4.000000
 -0.446429  0.053571  0.125000      4.000000
 -0.410714  0.053571  0.125000      4.000000
 -0.375000  0.053571  0.125000      4.000000
 -0.339286  0.053571  0.125000      4.000000
 -0.303571  0.053571  0.125000      4.000000
 -0.267857  0.053571  0.125000      4.000000
 -0.232143  0.053571  0.125000      4.000000
 -0.196429  0.053571  0.125000      4.000000
 -0.160714  0.053571  0.125000      4.000000
 -0.125000  0.053571  0.125000      4.000000
 -0.089286  0.053571  0.125000      4.000000
 -0.053571  0.053571  0.125000      4.000000
 -0.017857  0.053571  0.125000      4.000000
  0.017857  0.089286  0.125000      4.000000
  0.053571  0.089286  0.125000      4.000000
  0.089286  0.089286  0.125000      4.000000
  0.125000  0.089286  0.125000      4.000000
  0.160714  0.089286  0.125000      4.000000
  0.196429  0.089286  0.125000      4.000000
  0.232143  0.089286  0.125000      4.000000
  0.267857  0.089286  0.125000      4.000000
  0.303571  0.089286  0.125000      4.000000
  0.339286  0.089286  0.125000      4.000000
  0.375000  0.089286  0.125000      4.000000
  0.410714  0.089286  0.125000      4.000000
  0.446429  0.089286  0.125000      4.000000
  0.482143  0.089286  0.125000      4.000000
 -0.482143  0.089286  0.125000      4.000000
 -0.446429  0.089286  0.125000      4.000000
 -0.410714  0.089286  0.125000      4.000000
 -0.375000  0.089286  0.125000      4.000000
 -0.339286  0.089286  0.125000      4.000000
 -0.303571  0.089286  0.125000      4.000000
 -0.267857  0.089286  0.125000      4.000000
 -0.232143  0.089286  0.125000      4.000000
 -0.196429  0.089286  0.125000      4.000000
 -0.160714  0.089286  0.125000      4.000000
 -0.125000  0.089286  0.125000      4.000000
 -0.089286  0.089286  0.125000      4.000000
 -0.053571  0.089286  0.125000      4.000000
 -0.017857  0.089286  0.125000      4.000000
  0.017857  0.125000  0.125000      4.000000
  0.053571  0.125000  0.125000      4.000000
  0.089286  0.125000  0.125000      4.000000
  0.125000  0.125000  0.125000      4.000000
  0.160714  0.125000  0.125000      4.000000
  0.196429  0.125000  0.125000      4.000000
  0.232143  0.125000  0.125000      4.000000
  0.267857  0.125000  0.125000      4.000000
  0.303571  0.125000  0.125000      4.000000
  0.339286  0.125000  0.125000      4.000000
  0.375000  0.125000  0.125000      4.000000
  0.410714  0.125000  0.125000      4.000000
  0.446429  0.125000  0.125000      4.000000
  0.482143  0.125000  0.125000      4.000000
 -0.482143  0.125000  0.125000      4.000000
 -0.446429  0.125000  0.125000      4.000000
 -0.410714  0.125000  0.125000      4.000000
 -0.375000  0.125000  0.125000      4.000000
 -0.339286  0.125000  0.125000      4.000000
 -0.303571  0.125000  0.125000      4.000000
 -0.267857  0.125000  0.125000      4.000000
 -0.232143  0.125000  0.125000      4.000000
 -0.196429  0.125000  0.125000      4.000000
 -0.160714  0.125000  0.125000      4.000000
 -0.125000  0.125000  0.125000      4.000000
 -0.089286  0.125000  0.125000      4.000000
 -0.053571  0.125000  0.125000      4.000000
 -0.017857  0.125000  0.125000      4.000000
  0.017857  0.160714  0.125000      4.000000
  0.053571  0.160714  0.125000      4.000000
  0.089286  0.160714  0.125000      4.000000
  0.125000  0.160714  0.125000      4.000000
  0.160714  0.160714  0.125000      4.000000
  0.196429  0.160714  0.125000      4.000000
  0.232143  0.160714  0.125000      4.000000
  0.267857  0.160714  0.125000      4.000000
  0.303571  0.160714  0.125000      4.000000
  0.339286  0.160714  0.125000      4.000000
  0.375000  0.160714  0.125000      4.000000
  0.410714  0.160714  0.125000      4.000000
  0.446429  0.160714  0.125000      4.000000
  0.482143  0.160714  0.125000      4.000000
 -0.482143  0.160714  0.125000      4.000000
 -0.446429  0.160714  0.125000      4.000000
 -0.410714  0.160714  0.125000      4.000000
 -0.375000  0.160714  0.125000      4.000000
 -0.339286  0.160714  0.125000      4.000000
 -0.303571  0.160714  0.125000      4.000000
 -0.267857  0.160714  0.125000      4.000000
 -0.232143  0.160714  0.125000      4.000000
 -0.196429  0.160714  0.125000      4.000000
 -0.160714  0.160714  0.125000      4.000000
 -0.125000  0.160714  0.125000      4.000000
 -0.089286  0.160714  0.125000      4.000000
 -0.053571  0.160714  0.125000      4.000000
 -0.017857  0.160714  0.125000      4.000000
  0.017857  0.196429  0.125000      4.000000
  0.053571  0.196429  0.125000      4.000000
  0.089286  0.196429  0.125000      4.000000
  0.125000  0.196429  0.125000      4.000000
  0.160714  0.196429  0.125000      4.000000
  0.196429  0.196429  0.125000      4.000000
  0.232143  0.196429  0.125000      4.000000
  0.267857  0.196429  0.125000      4.000000
  0.303571  0.196429  0.125000      4.000000
  0.339286  0.196429  0.125000      4.000000
  0.375000  0.196429  0.125000      4.000000
  0.410714  0.196429  0.125000      4.000000
  0.446429  0.196429  0.125000      4.000000
  0.482143  0.196429  0.125000      4.000000
 -0.482143  0.196429  0.125000      4.000000
 -0.446429  0.196429  0.125000      4.000000
 -0.410714  0.196429  0.125000      4.000000
 -0.375000  0.196429  0.125000      4.000000
 -0.339286  0.196429  0.125000      4.000000
 -0.303571  0.196429  0.125000      4.000000
 -0.267857  0.196429  0.125000      4.000000
 -0.232143  0.196429  0.125000      4.000000
 -0.196429  0.196429  0.125000      4.000000
 -0.160714  0.196429  0.125000      4.000000
 -0.125000  0.196429  0.125000      4.000000
 -0.089286  0.196429  0.125000      4.000000
 -0.053571  0.196429  0.125000      4.000000
 -0.017857  0.196429  0.125000      4.000000
  0.017857  0.232143  0.125000      4.000000
  0.053571  0.232143  0.125000      4.000000
  0.089286  0.232143  0.125000      4.000000
  0.125000  0.232143  0.125000      4.000000
  0.160714  0.232143  0.125000      4.000000
  0.196429  0.232143  0.125000      4.000000
  0.232143  0.232143  0.125000      4.000000
  0.267857  0.232143  0.125000      4.000000
  0.303571  0.232143  0.125000      4.000000
  0.339286  0.232143  0.125000      4.000000
  0.375000  0.232143  0.125000      4.000000
  0.410714  0.232143  0.125000      4.000000
  0.446429  0.232143  0.125000      4.000000
  0.482143  0.232143  0.125000      4.000000
 -0.482143  0.232143  0.125000      4.000000
 -0.446429  0.232143  0.125000      4.000000
 -0.410714  0.232143  0.125000      4.000000
 -0.375000  0.232143  0.125000      4.000000
 -0.339286  0.232143  0.125000      4.000000
 -0.303571  0.232143  0.125000      4.000000
 -0.267857  0.232143  0.125000      4.000000
 -0.232143  0.232143  0.125000      4.000000
 -0.196429  0.232143  0.125000      4.000000
 -0.160714  0.232143  0.125000      4.000000
 -0.125000  0.232143  0.125000      4.000000
 -0.089286  0.232143  0.125000      4.000000
 -0.053571  0.232143  0.125000      4.000000
 -0.017857  0.232143  0.125000      4.000000
  0.017857  0.267857  0.125000      4.000000
  0.053571  0.267857  0.125000      4.000000
  0.089286  0.267857  0.125000      4.000000
  0.125000  0.267857  0.125000      4.000000
  0.160714  0.267857  0.125000      4.000000
  0.196429  0.267857  0.125000      4.000000
  0.232143  0.267857  0.125000      4.000000
  0.267857  0.267857  0.125000      4.000000
  0.303571  0.267857  0.125000      4.000000
  0.339286  0.267857  0.125000      4.000000
  0.375000  0.267857  0.125000      4.000000
  0.410714  0.267857  0.125000      4.000000
  0.446429  0.267857  0.125000      4.000000
  0.482143  0.267857  0.125000      4.000000
 -0.482143  0.267857  0.125000      4.000000
 -0.446429  0.267857  0.125000      4.000000
 -0.410714  0.267857  0.125000      4.000000
 -0.375000  0.267857  0.125000      4.000000
 -0.339286  0.267857  0.125000      4.000000
 -0.303571  0.267857  0.125000      4.000000
 -0.267857  0.267857  0.125000      4.000000
 -0.232143  0.267857  0.125000      4.000000
 -0.196429  0.267857  0.125000      4.000000
 -0.160714  0.267857  0.125000      4.000000
 -0.125000  0.267857  0.125000      4.000000
 -0.089286  0.267857  0.125000      4.000000
 -0.053571  0.267857  0.125000      4.000000
 -0.017857  0.267857  0.125000      4.000000
  0.017857  0.303571  0.125000      4.000000
  0.053571  0.303571  0.125000      4.000000
  0.089286  0.303571  0.125000      4.000000
  0.125000  0.303571  0.125000      4.000000
  0.160714  0.303571  0.125000      4.000000
  0.196429  0.303571  0.125000      4.000000
  0.232143  0.303571  0.125000      4.000000
  0.267857  0.303571  0.125000      4.000000
  0.303571  0.303571  0.125000      4.000000
  0.339286  0.303571  0.125000      4.000000
  0.375000  0.303571  0.125000      4.000000
  0.410714  0.303571  0.125000      4.000000
  0.446429  0.303571  0.125000      4.000000
  0.482143  0.303571  0.125000      4.000000
 -0.482143  0.303571  0.125000      4.000000
 -0.446429  0.303571  0.125000      4.000000
 -0.410714  0.303571  0.125000      4.000000
 -0.375000  0.303571  0.125000      4.000000
 -0.339286  0.303571  0.125000      4.000000
 -0.303571  0.303571  0.125000      4.000000
 -0.267857  0.303571  0.125000      4.000000
 -0.232143  0.303571  0.125000      4.000000
 -0.196429  0.303571  0.125000      4.000000
 -0.160714  0.303571  0.125000      4.000000
 -0.125000  0.303571  0.125000      4.000000
 -0.089286  0.303571  0.125000      4.000000
 -0.053571  0.303571  0.125000      4.000000
 -0.017857  0.303571  0.125000      4.000000
  0.017857  0.339286  0.125000      4.000000
  0.053571  0.339286  0.125000      4.000000
  0.089286  0.339286  0.125000      4.000000
  0.125000  0.339286  0.125000      4.000000
  0.160714  0.339286  0.125000      4.000000
  0.196429  0.339286  0.125000      4.000000
  0.232143  0.339286  0.125000      4.000000
  0.267857  0.339286  0.125000      4.000000
  0.303571  0.339286  0.125000      4.000000
  0.339286  0.339286  0.125000      4.000000
  0.375000  0.339286  0.125000      4.000000
  0.410714  0.339286  0.125000      4.000000
  0.446429  0.339286  0.125000      4.000000
  0.482143  0.339286  0.125000      4.000000
 -0.482143  0.339286  0.125000      4.000000
 -0.446429  0.339286  0.125000      4.000000
 -0.410714  0.339286  0.125000      4.000000
 -0.375000  0.339286  0.125000      4.000000
 -0.339286  0.339286  0.125000      4.000000
 -0.303571  0.339286  0.125000      4.000000
 -0.267857  0.339286  0.125000      4.000000
 -0.232143  0.339286  0.125000      4.000000
 -0.196429  0.339286  0.125000      4.000000
 -0.160714  0.339286  0.125000      4.000000
 -0.125000  0.339286  0.125000      4.000000
 -0.089286  0.339286  0.125000      4.000000
 -0.053571  0.339286  0.125000      4.000000
 -0.017857  0.339286  0.125000      4.000000
  0.017857  0.375000  0.125000      4.000000
  0.053571  0.375000  0.125000      4.000000
  0.089286  0.375000  0.125000      4.000000
  0.125000  0.375000  0.125000      4.000000
  0.160714  0.375000  0.125000      4.000000
  0.196429  0.375000  0.125000      4.000000
  0.232143  0.375000  0.125000      4.000000
  0.267857  0.375000  0.125000      4.000000
  0.303571  0.375000  0.125000      4.000000
  0.339286  0.375000  0.125000      4.000000
  0.375000  0.375000  0.125000      4.000000
  0.410714  0.375000  0.125000      4.000000
  0.446429  0.375000  0.125000      4.000000
  0.482143  0.375000  0.125000      4.000000
 -0.482143  0.375000  0.125000      4.000000
 -0.446429  0.375000  0.125000      4.000000
 -0.410714  0.375000  0.125000      4.000000
 -0.375000  0.375000  0.125000      4.000000
 -0.339286  0.375000  0.125000      4.000000
 -0.303571  0.375000  0.125000      4.000000
 -0.267857  0.375000  0.125000      4.000000
 -0.232143  0.375000  0.125000      4.000000
 -0.196429  0.375000  0.125000      4.000000
 -0.160714  0.375000  0.125000      4.000000
 -0.125000  0.375000  0.125000      4.000000
 -0.089286  0.375000  0.125000      4.000000
 -0.053571  0.375000  0.125000      4.000000
 -0.017857  0.375000  0.125000      4.000000
  0.017857  0.410714  0.125000      4.000000
  0.053571  0.410714  0.125000      4.000000
  0.089286  0.410714  0.125000      4.000000
  0.125000  0.410714  0.125000      4.000000
  0.160714  0.410714  0.125000      4.000000
  0.196429  0.410714  0.125000      4.000000
  0.232143  0.410714  0.125000      4.000000
  0.267857  0.410714  0.125000      4.000000
  0.303571  0.410714  0.125000      4.000000
  0.339286  0.410714  0.125000      4.000000
  0.375000  0.410714  0.125000      4.000000
  0.410714  0.410714  0.125000      4.000000
  0.446429  0.410714  0.125000      4.000000
  0.482143  0.410714  0.125000      4.000000
 -0.482143  0.410714  0.125000      4.000000
 -0.446429  0.410714  0.125000      4.000000
 -0.410714  0.410714  0.125000      4.000000
 -0.375000  0.410714  0.125000      4.000000
 -0.339286  0.410714  0.125000      4.000000
 -0.303571  0.410714  0.125000      4.000000
 -0.267857  0.410714  0.125000      4.000000
 -0.232143  0.410714  0.125000      4.000000
 -0.196429  0.410714  0.125000      4.000000
 -0.160714  0.410714  0.125000      4.000000
 -0.125000  0.410714  0.125000      4.000000
 -0.089286  0.410714  0.125000      4.000000
 -0.053571  0.410714  0.125000      4.000000
 -0.017857  0.410714  0.125000      4.000000
  0.017857  0.446429  0.125000      4.000000
  0.053571  0.446429  0.125000      4.000000
  0.089286  0.446429  0.125000      4.000000
  0.125000  0.446429  0.125000      4.000000
  0.160714  0.446429  0.125000      4.000000
  0.196429  0.446429  0.125000      4.000000
  0.232143  0.446429  0.125000      4.000000
  0.267857  0.446429  0.125000      4.000000
  0.303571  0.446429  0.125000      4.000000
  0.339286  0.446429  0.125000      4.000000
  0.375000  0.446429  0.125000      4.000000
  0.410714  0.446429  0.125000      4.000000
  0.446429  0.446429  0.125000      4.000000
  0.482143  0.446429  0.125000      4.000000
 -0.482143  0.446429  0.125000      4.000000
 -0.446429  0.446429  0.125000      4.000000
 -0.410714  0.446429  0.125000      4.000000
 -0.375000  0.446429  0.125000      4.000000
 -0.339286  0.446429  0.125000      4.000000
 -0.303571  0.446429  0.125000      4.000000
 -0.267857  0.446429  0.125000      4.000000
 -0.232143  0.446429  0.125000      4.000000
 -0.196429  0.446429  0.125000      4.000000
 -0.160714  0.446429  0.125000      4.000000
 -0.125000  0.446429  0.125000      4.000000
 -0.089286  0.446429  0.125000      4.000000
 -0.053571  0.446429  0.125000      4.000000
 -0.017857  0.446429  0.125000      4.000000
  0.017857  0.482143  0.125000      4.000000
  0.053571  0.482143  0.125000      4.000000
  0.089286  0.482143  0.125000      4.000000
  0.125000  0.482143  0.125000      4.000000
  0.160714  0.482143  0.125000      4.000000
  0.196429  0.482143  0.125000      4.000000
  0.232143  0.482143  0.125000      4.000000
  0.267857  0.482143  0.125000      4.000000
  0.303571  0.482143  0.125000      4.000000
  0.339286  0.482143  0.125000      4.000000
  0.375000  0.482143  0.125000      4.000000
  0.410714  0.482143  0.125000      4.000000
  0.446429  0.482143  0.125000      4.000000
  0.482143  0.482143  0.125000      4.000000
 -0.482143  0.482143  0.125000      4.000000
 -0.446429  0.482143  0.125000      4.000000
 -0.410714  0.482143  0.125000      4.000000
 -0.375000  0.482143  0.125000      4.000000
 -0.339286  0.482143  0.125000      4.000000
 -0.303571  0.482143  0.125000      4.000000
 -0.267857  0.482143  0.125000      4.000000
 -0.232143  0.482143  0.125000      4.000000
 -0.196429  0.482143  0.125000      4.000000
 -0.160714  0.482143  0.125000      4.000000
 -0.125000  0.482143  0.125000      4.000000
 -0.089286  0.482143  0.125000      4.000000
 -0.053571  0.482143  0.125000      4.000000
 -0.017857  0.482143  0.125000      4.000000
  0.017857  0.017857  0.375000      4.000000
  0.053571  0.017857  0.375000      4.000000
  0.089286  0.017857  0.375000      4.000000
  0.125000  0.017857  0.375000      4.000000
  0.160714  0.017857  0.375000      4.000000
  0.196429  0.017857  0.375000      4.000000
  0.232143  0.017857  0.375000      4.000000
  0.267857  0.017857  0.375000      4.000000
  0.303571  0.017857  0.375000      4.000000
  0.339286  0.017857  0.375000      4.000000
  0.375000  0.017857  0.375000      4.000000
  0.410714  0.017857  0.375000      4.000000
  0.446429  0.017857  0.375000      4.000000
  0.482143  0.017857  0.375000      4.000000
 -0.482143  0.017857  0.375000      4.000000
 -0.446429  0.017857  0.375000      4.000000
 -0.410714  0.017857  0.375000      4.000000
 -0.375000  0.017857  0.375000      4.000000
 -0.339286  0.017857  0.375000      4.000000
 -0.303571  0.017857  0.375000      4.000000
 -0.267857  0.017857  0.375000      4.000000
 -0.232143  0.017857  0.375000      4.000000
 -0.196429  0.017857  0.375000      4.000000
 -0.160714  0.017857  0.375000      4.000000
 -0.125000  0.017857  0.375000      4.000000
 -0.089286  0.017857  0.375000      4.000000
 -0.053571  0.017857  0.375000      4.000000
 -0.017857  0.017857  0.375000      4.000000
  0.017857  0.053571  0.375000      4.000000
  0.053571  0.053571  0.375000      4.000000
  0.089286  0.053571  0.375000      4.000000
  0.125000  0.053571  0.375000      4.000000
  0.160714  0.053571  0.375000      4.000000
  0.196429  0.053571  0.375000      4.000000
  0.232143  0.053571  0.375000      4.000000
  0.267857  0.053571  0.375000      4.000000
  0.303571  0.053571  0.375000      4.000000
  0.339286  0.053571  0.375000      4.000000
  0.375000  0.053571  0.375000      4.000000
  0.410714  0.053571  0.375000      4.000000
  0.446429  0.053571  0.375000      4.000000
  0.482143  0.053571  0.375000      4.000000
 -0.482143  0.053571  0.375000      4.000000
 -0.446429  0.053571  0.375000      4.000000
 -0.410714  0.053571  0.375000      4.000000
 -0.375000  0.053571  0.375000      4.000000
 -0.339286  0.053571  0.375000      4.000000
 -0.303571  0.053571  0.375000      4.000000
 -0.267857  0.053571  0.375000      4.000000
 -0.232143  0.053571  0.375000      4.000000
 -0.196429  0.053571  0.375000      4.000000
 -0.160714  0.053571  0.375000      4.000000
 -0.125000  0.053571  0.375000      4.000000
 -0.089286  0.053571  0.375000      4.000000
 -0.053571  0.053571  0.375000      4.000000
 -0.017857  0.053571  0.375000      4.000000
  0.017857  0.089286  0.375000      4.000000
  0.053571  0.089286  0.375000      4.000000
  0.089286  0.089286  0.375000      4.000000
  0.125000  0.089286  0.375000      4.000000
  0.160714  0.089286  0.375000      4.000000
  0.196429  0.089286  0.375000      4.000000
  0.232143  0.089286  0.375000      4.000000
  0.267857  0.089286  0.375000      4.000000
  0.303571  0.089286  0.375000      4.000000
  0.339286  0.089286  0.375000      4.000000
  0.375000  0.089286  0.375000      4.000000
  0.410714  0.089286  0.375000      4.000000
  0.446429  0.089286  0.375000      4.000000
  0.482143  0.089286  0.375000      4.000000
 -0.482143  0.089286  0.375000      4.000000
 -0.446429  0.089286  0.375000      4.000000
 -0.410714  0.089286  0.375000      4.000000
 -0.375000  0.089286  0.375000      4.000000
 -0.339286  0.089286  0.375000      4.000000
 -0.303571  0.089286  0.375000      4.000000
 -0.267857  0.089286  0.375000      4.000000
 -0.232143  0.089286  0.375000      4.000000
 -0.196429  0.089286  0.375000      4.000000
 -0.160714  0.089286  0.375000      4.000000
 -0.125000  0.089286  0.375000      4.000000
 -0.089286  0.089286  0.375000      4.000000
 -0.053571  0.089286  0.375000      4.000000
 -0.017857  0.089286  0.375000      4.000000
  0.017857  0.125000  0.375000      4.000000
  0.053571  0.125000  0.375000      4.000000
  0.089286  0.125000  0.375000      4.000000
  0.125000  0.125000  0.375000      4.000000
  0.160714  0.125000  0.375000      4.000000
  0.196429  0.125000  0.375000      4.000000
  0.232143  0.125000  0.375000      4.000000
  0.267857  0.125000  0.375000      4.000000
  0.303571  0.125000  0.375000      4.000000
  0.339286  0.125000  0.375000      4.000000
  0.375000  0.125000  0.375000      4.000000
  0.410714  0.125000  0.375000      4.000000
  0.446429  0.125000  0.375000      4.000000
  0.482143  0.125000  0.375000      4.000000
 -0.482143  0.125000  0.375000      4.000000
 -0.446429  0.125000  0.375000      4.000000
 -0.410714  0.125000  0.375000      4.000000
 -0.375000  0.125000  0.375000      4.000000
 -0.339286  0.125000  0.375000      4.000000
 -0.303571  0.125000  0.375000      4.000000
 -0.267857  0.125000  0.375000      4.000000
 -0.232143  0.125000  0.375000      4.000000
 -0.196429  0.125000  0.375000      4.000000
 -0.160714  0.125000  0.375000      4.000000
 -0.125000  0.125000  0.375000      4.000000
 -0.089286  0.125000  0.375000      4.000000
 -0.053571  0.125000  0.375000      4.000000
 -0.017857  0.125000  0.375000      4.000000
  0.017857  0.160714  0.375000      4.000000
  0.053571  0.160714  0.375000      4.000000
  0.089286  0.160714  0.375000      4.000000
  0.125000  0.160714  0.375000      4.000000
  0.160714  0.160714  0.375000      4.000000
  0.196429  0.160714  0.375000      4.000000
  0.232143  0.160714  0.375000      4.000000
  0.267857  0.160714  0.375000      4.000000
  0.303571  0.160714  0.375000      4.000000
  0.339286  0.160714  0.375000      4.000000
  0.375000  0.160714  0.375000      4.000000
  0.410714  0.160714  0.375000      4.000000
  0.446429  0.160714  0.375000      4.000000
  0.482143  0.160714  0.375000      4.000000
 -0.482143  0.160714  0.375000      4.000000
 -0.446429  0.160714  0.375000      4.000000
 -0.410714  0.160714  0.375000      4.000000
 -0.375000  0.160714  0.375000      4.000000
 -0.339286  0.160714  0.375000      4.000000
 -0.303571  0.160714  0.375000      4.000000
 -0.267857  0.160714  0.375000      4.000000
 -0.232143  0.160714  0.375000      4.000000
 -0.196429  0.160714  0.375000      4.000000
 -0.160714  0.160714  0.375000      4.000000
 -0.125000  0.160714  0.375000      4.000000
 -0.089286  0.160714  0.375000      4.000000
 -0.053571  0.160714  0.375000      4.000000
 -0.017857  0.160714  0.375000      4.000000
  0.017857  0.196429  0.375000      4.000000
  0.053571  0.196429  0.375000      4.000000
  0.089286  0.196429  0.375000      4.000000
  0.125000  0.196429  0.375000      4.000000
  0.160714  0.196429  0.375000      4.000000
  0.196429  0.196429  0.375000      4.000000
  0.232143  0.196429  0.375000      4.000000
  0.267857  0.196429  0.375000      4.000000
  0.303571  0.196429  0.375000      4.000000
  0.339286  0.196429  0.375000      4.000000
  0.375000  0.196429  0.375000      4.000000
  0.410714  0.196429  0.375000      4.000000
  0.446429  0.196429  0.375000      4.000000
  0.482143  0.196429  0.375000      4.000000
 -0.482143  0.196429  0.375000      4.000000
 -0.446429  0.196429  0.375000      4.000000
 -0.410714  0.196429  0.375000      4.000000
 -0.375000  0.196429  0.375000      4.000000
 -0.339286  0.196429  0.375000      4.000000
 -0.303571  0.196429  0.375000      4.000000
 -0.267857  0.196429  0.375000      4.000000
 -0.232143  0.196429  0.375000      4.000000
 -0.196429  0.196429  0.375000      4.000000
 -0.160714  0.196429  0.375000      4.000000
 -0.125000  0.196429  0.375000      4.000000
 -0.089286  0.196429  0.375000      4.000000
 -0.053571  0.196429  0.375000      4.000000
 -0.017857  0.196429  0.375000      4.000000
  0.017857  0.232143  0.375000      4.000000
  0.053571  0.232143  0.375000      4.000000
  0.089286  0.232143  0.375000      4.000000
  0.125000  0.232143  0.375000      4.000000
  0.160714  0.232143  0.375000      4.000000
  0.196429  0.232143  0.375000      4.000000
  0.232143  0.232143  0.375000      4.000000
  0.267857  0.232143  0.375000      4.000000
  0.303571  0.232143  0.375000      4.000000
  0.339286  0.232143  0.375000      4.000000
  0.375000  0.232143  0.375000      4.000000
  0.410714  0.232143  0.375000      4.000000
  0.446429  0.232143  0.375000      4.000000
  0.482143  0.232143  0.375000      4.000000
 -0.482143  0.232143  0.375000      4.000000
 -0.446429  0.232143  0.375000      4.000000
 -0.410714  0.232143  0.375000      4.000000
 -0.375000  0.232143  0.375000      4.000000
 -0.339286  0.232143  0.375000      4.000000
 -0.303571  0.232143  0.375000      4.000000
 -0.267857  0.232143  0.375000      4.000000
 -0.232143  0.232143  0.375000      4.000000
 -0.196429  0.232143  0.375000      4.000000
 -0.160714  0.232143  0.375000      4.000000
 -0.125000  0.232143  0.375000      4.000000
 -0.089286  0.232143  0.375000      4.000000
 -0.053571  0.232143  0.375000      4.000000
 -0.017857  0.232143  0.375000      4.000000
  0.017857  0.267857  0.375000      4.000000
  0.053571  0.267857  0.375000      4.000000
  0.089286  0.267857  0.375000      4.000000
  0.125000  0.267857  0.375000      4.000000
  0.160714  0.267857  0.375000      4.000000
  0.196429  0.267857  0.375000      4.000000
  0.232143  0.267857  0.375000      4.000000
  0.267857  0.267857  0.375000      4.000000
  0.303571  0.267857  0.375000      4.000000
  0.339286  0.267857  0.375000      4.000000
  0.375000  0.267857  0.375000      4.000000
  0.410714  0.267857  0.375000      4.000000
  0.446429  0.267857  0.375000      4.000000
  0.482143  0.267857  0.375000      4.000000
 -0.482143  0.267857  0.375000      4.000000
 -0.446429  0.267857  0.375000      4.000000
 -0.410714  0.267857  0.375000      4.000000
 -0.375000  0.267857  0.375000      4.000000
 -0.339286  0.267857  0.375000      4.000000
 -0.303571  0.267857  0.375000      4.000000
 -0.267857  0.267857  0.375000      4.000000
 -0.232143  0.267857  0.375000      4.000000
 -0.196429  0.267857  0.375000      4.000000
 -0.160714  0.267857  0.375000      4.000000
 -0.125000  0.267857  0.375000      4.000000
 -0.089286  0.267857  0.375000      4.000000
 -0.053571  0.267857  0.375000      4.000000
 -0.017857  0.267857  0.375000      4.000000
  0.017857  0.303571  0.375000      4.000000
  0.053571  0.303571  0.375000      4.000000
  0.089286  0.303571  0.375000      4.000000
  0.125000  0.303571  0.375000      4.000000
  0.160714  0.303571  0.375000      4.000000
  0.196429  0.303571  0.375000      4.000000
  0.232143  0.303571  0.375000      4.000000
  0.267857  0.303571  0.375000      4.000000
  0.303571  0.303571  0.375000      4.000000
  0.339286  0.303571  0.375000      4.000000
  0.375000  0.303571  0.375000      4.000000
  0.410714  0.303571  0.375000      4.000000
  0.446429  0.303571  0.375000      4.000000
  0.482143  0.303571  0.375000      4.000000
 -0.482143  0.303571  0.375000      4.000000
 -0.446429  0.303571  0.375000      4.000000
 -0.410714  0.303571  0.375000      4.000000
 -0.375000  0.303571  0.375000      4.000000
 -0.339286  0.303571  0.375000      4.000000
 -0.303571  0.303571  0.375000      4.000000
 -0.267857  0.303571  0.375000      4.000000
 -0.232143  0.303571  0.375000      4.000000
 -0.196429  0.303571  0.375000      4.000000
 -0.160714  0.303571  0.375000      4.000000
 -0.125000  0.303571  0.375000      4.000000
 -0.089286  0.303571  0.375000      4.000000
 -0.053571  0.303571  0.375000      4.000000
 -0.017857  0.303571  0.375000      4.000000
  0.017857  0.339286  0.375000      4.000000
  0.053571  0.339286  0.375000      4.000000
  0.089286  0.339286  0.375000      4.000000
  0.125000  0.339286  0.375000      4.000000
  0.160714  0.339286  0.375000      4.000000
  0.196429  0.339286  0.375000      4.000000
  0.232143  0.339286  0.375000      4.000000
  0.267857  0.339286  0.375000      4.000000
  0.303571  0.339286  0.375000      4.000000
  0.339286  0.339286  0.375000      4.000000
  0.375000  0.339286  0.375000      4.000000
  0.410714  0.339286  0.375000      4.000000
  0.446429  0.339286  0.375000      4.000000
  0.482143  0.339286  0.375000      4.000000
 -0.482143  0.339286  0.375000      4.000000
 -0.446429  0.339286  0.375000      4.000000
 -0.410714  0.339286  0.375000      4.000000
 -0.375000  0.339286  0.375000      4.000000
 -0.339286  0.339286  0.375000      4.000000
 -0.303571  0.339286  0.375000      4.000000
 -0.267857  0.339286  0.375000      4.000000
 -0.232143  0.339286  0.375000      4.000000
 -0.196429  0.339286  0.375000      4.000000
 -0.160714  0.339286  0.375000      4.000000
 -0.125000  0.339286  0.375000      4.000000
 -0.089286  0.339286  0.375000      4.000000
 -0.053571  0.339286  0.375000      4.000000
 -0.017857  0.339286  0.375000      4.000000
  0.017857  0.375000  0.375000      4.000000
  0.053571  0.375000  0.375000      4.000000
  0.089286  0.375000  0.375000      4.000000
  0.125000  0.375000  0.375000      4.000000
  0.160714  0.375000  0.375000      4.000000
  0.196429  0.375000  0.375000      4.000000
  0.232143  0.375000  0.375000      4.000000
  0.267857  0.375000  0.375000      4.000000
  0.303571  0.375000  0.375000      4.000000
  0.339286  0.375000  0.375000      4.000000
  0.375000  0.375000  0.375000      4.000000
  0.410714  0.375000  0.375000      4.000000
  0.446429  0.375000  0.375000      4.000000
  0.482143  0.375000  0.375000      4.000000
 -0.482143  0.375000  0.375000      4.000000
 -0.446429  0.375000  0.375000      4.000000
 -0.410714  0.375000  0.375000      4.000000
 -0.375000  0.375000  0.375000      4.000000
 -0.339286  0.375000  0.375000      4.000000
 -0.303571  0.375000  0.375000      4.000000
 -0.267857  0.375000  0.375000      4.000000
 -0.232143  0.375000  0.375000      4.000000
 -0.196429  0.375000  0.375000      4.000000
 -0.160714  0.375000  0.375000      4.000000
 -0.125000  0.375000  0.375000      4.000000
 -0.089286  0.375000  0.375000      4.000000
 -0.053571  0.375000  0.375000      4.000000
 -0.017857  0.375000  0.375000      4.000000
  0.017857  0.410714  0.375000      4.000000
  0.053571  0.410714  0.375000      4.000000
  0.089286  0.410714  0.375000      4.000000
  0.125000  0.410714  0.375000      4.000000
  0.160714  0.410714  0.375000      4.000000
  0.196429  0.410714  0.375000      4.000000
  0.232143  0.410714  0.375000      4.000000
  0.267857  0.410714  0.375000      4.000000
  0.303571  0.410714  0.375000      4.000000
  0.339286  0.410714  0.375000      4.000000
  0.375000  0.410714  0.375000      4.000000
  0.410714  0.410714  0.375000      4.000000
  0.446429  0.410714  0.375000      4.000000
  0.482143  0.410714  0.375000      4.000000
 -0.482143  0.410714  0.375000      4.000000
 -0.446429  0.410714  0.375000      4.000000
 -0.410714  0.410714  0.375000      4.000000
 -0.375000  0.410714  0.375000      4.000000
 -0.339286  0.410714  0.375000      4.000000
 -0.303571  0.410714  0.375000      4.000000
 -0.267857  0.410714  0.375000      4.000000
 -0.232143  0.410714  0.375000      4.000000
 -0.196429  0.410714  0.375000      4.000000
 -0.160714  0.410714  0.375000      4.000000
 -0.125000  0.410714  0.375000      4.000000
 -0.089286  0.410714  0.375000      4.000000
 -0.053571  0.410714  0.375000      4.000000
 -0.017857  0.410714  0.375000      4.000000
  0.017857  0.446429  0.375000      4.000000
  0.053571  0.446429  0.375000      4.000000
  0.089286  0.446429  0.375000      4.000000
  0.125000  0.446429  0.375000      4.000000
  0.160714  0.446429  0.375000      4.000000
  0.196429  0.446429  0.375000      4.000000
  0.232143  0.446429  0.375000      4.000000
  0.267857  0.446429  0.375000      4.000000
  0.303571  0.446429  0.375000      4.000000
  0.339286  0.446429  0.375000      4.000000
  0.375000  0.446429  0.375000      4.000000
  0.410714  0.446429  0.375000      4.000000
  0.446429  0.446429  0.375000      4.000000
  0.482143  0.446429  0.375000      4.000000
 -0.482143  0.446429  0.375000      4.000000
 -0.446429  0.446429  0.375000      4.000000
 -0.410714  0.446429  0.375000      4.000000
 -0.375000  0.446429  0.375000      4.000000
 -0.339286  0.446429  0.375000      4.000000
 -0.303571  0.446429  0.375000      4.000000
 -0.267857  0.446429  0.375000      4.000000
 -0.232143  0.446429  0.375000      4.000000
 -0.196429  0.446429  0.375000      4.000000
 -0.160714  0.446429  0.375000      4.000000
 -0.125000  0.446429  0.375000      4.000000
 -0.089286  0.446429  0.375000      4.000000
 -0.053571  0.446429  0.375000      4.000000
 -0.017857  0.446429  0.375000      4.000000
  0.017857  0.482143  0.375000      4.000000
  0.053571  0.482143  0.375000      4.000000
  0.089286  0.482143  0.375000      4.000000
  0.125000  0.482143  0.375000      4.000000
  0.160714  0.482143  0.375000      4.000000
  0.196429  0.482143  0.375000      4.000000
  0.232143  0.482143  0.375000      4.000000
  0.267857  0.482143  0.375000      4.000000
  0.303571  0.482143  0.375000      4.000000
  0.339286  0.482143  0.375000      4.000000
  0.375000  0.482143  0.375000      4.000000
  0.410714  0.482143  0.375000      4.000000
  0.446429  0.482143  0.375000      4.000000
  0.482143  0.482143  0.375000      4.000000
 -0.482143  0.482143  0.375000      4.000000
 -0.446429  0.482143  0.375000      4.000000
 -0.410714  0.482143  0.375000      4.000000
 -0.375000  0.482143  0.375000      4.000000
 -0.339286  0.482143  0.375000      4.000000
 -0.303571  0.482143  0.375000      4.000000
 -0.267857  0.482143  0.375000      4.000000
 -0.232143  0.482143  0.375000      4.000000
 -0.196429  0.482143  0.375000      4.000000
 -0.160714  0.482143  0.375000      4.000000
 -0.125000  0.482143  0.375000      4.000000
 -0.089286  0.482143  0.375000      4.000000
 -0.053571  0.482143  0.375000      4.000000
 -0.017857  0.482143  0.375000      4.000000
 
 Following cartesian coordinates:
            Coordinates               Weight
  0.006253  0.006253  0.005156      4.000000
  0.018758  0.006253  0.005150      4.000000
  0.031263  0.006253  0.005145      4.000000
  0.043768  0.006253  0.005140      4.000000
  0.056273  0.006253  0.005135      4.000000
  0.068779  0.006253  0.005130      4.000000
  0.081284  0.006253  0.005125      4.000000
  0.093789  0.006253  0.005119      4.000000
  0.106294  0.006253  0.005114      4.000000
  0.118799  0.006253  0.005109      4.000000
  0.131305  0.006253  0.005104      4.000000
  0.143810  0.006253  0.005099      4.000000
  0.156315  0.006253  0.005094      4.000000
  0.168820  0.006253  0.005088      4.000000
 -0.168820  0.006253  0.005228      4.000000
 -0.156315  0.006253  0.005223      4.000000
 -0.143810  0.006253  0.005217      4.000000
 -0.131305  0.006253  0.005212      4.000000
 -0.118799  0.006253  0.005207      4.000000
 -0.106294  0.006253  0.005202      4.000000
 -0.093789  0.006253  0.005197      4.000000
 -0.081284  0.006253  0.005192      4.000000
 -0.068779  0.006253  0.005187      4.000000
 -0.056273  0.006253  0.005181      4.000000
 -0.043768  0.006253  0.005176      4.000000
 -0.031263  0.006253  0.005171      4.000000
 -0.018758  0.006253  0.005166      4.000000
 -0.006253  0.006253  0.005161      4.000000
  0.006253  0.018758  0.005156      4.000000
  0.018758  0.018758  0.005150      4.000000
  0.031263  0.018758  0.005145      4.000000
  0.043768  0.018758  0.005140      4.000000
  0.056273  0.018758  0.005135      4.000000
  0.068779  0.018758  0.005130      4.000000
  0.081284  0.018758  0.005125      4.000000
  0.093789  0.018758  0.005119      4.000000
  0.106294  0.018758  0.005114      4.000000
  0.118799  0.018758  0.005109      4.000000
  0.131305  0.018758  0.005104      4.000000
  0.143810  0.018758  0.005099      4.000000
  0.156315  0.018758  0.005094      4.000000
  0.168820  0.018758  0.005088      4.000000
 -0.168820  0.018758  0.005228      4.000000
 -0.156315  0.018758  0.005223      4.000000
 -0.143810  0.018758  0.005217      4.000000
 -0.131305  0.018758  0.005212      4.000000
 -0.118799  0.018758  0.005207      4.000000
 -0.106294  0.018758  0.005202      4.000000
 -0.093789  0.018758  0.005197      4.000000
 -0.081284  0.018758  0.005192      4.000000
 -0.068779  0.018758  0.005187      4.000000
 -0.056273  0.018758  0.005181      4.000000
 -0.043768  0.018758  0.005176      4.000000
 -0.031263  0.018758  0.005171      4.000000
 -0.018758  0.018758  0.005166      4.000000
 -0.006253  0.018758  0.005161      4.000000
  0.006253  0.031263  0.005156      4.000000
  0.018758  0.031263  0.005150      4.000000
  0.031263  0.031263  0.005145      4.000000
  0.043768  0.031263  0.005140      4.000000
  0.056273  0.031263  0.005135      4.000000
  0.068779  0.031263  0.005130      4.000000
  0.081284  0.031263  0.005125      4.000000
  0.093789  0.031263  0.005119      4.000000
  0.106294  0.031263  0.005114      4.000000
  0.118799  0.031263  0.005109      4.000000
  0.131305  0.031263  0.005104      4.000000
  0.143810  0.031263  0.005099      4.000000
  0.156315  0.031263  0.005094      4.000000
  0.168820  0.031263  0.005088      4.000000
 -0.168820  0.031263  0.005228      4.000000
 -0.156315  0.031263  0.005223      4.000000
 -0.143810  0.031263  0.005217      4.000000
 -0.131305  0.031263  0.005212      4.000000
 -0.118799  0.031263  0.005207      4.000000
 -0.106294  0.031263  0.005202      4.000000
 -0.093789  0.031263  0.005197      4.000000
 -0.081284  0.031263  0.005192      4.000000
 -0.068779  0.031263  0.005187      4.000000
 -0.056273  0.031263  0.005181      4.000000
 -0.043768  0.031263  0.005176      4.000000
 -0.031263  0.031263  0.005171      4.000000
 -0.018758  0.031263  0.005166      4.000000
 -0.006253  0.031263  0.005161      4.000000
  0.006253  0.043768  0.005156      4.000000
  0.018758  0.043768  0.005150      4.000000
  0.031263  0.043768  0.005145      4.000000
  0.043768  0.043768  0.005140      4.000000
  0.056273  0.043768  0.005135      4.000000
  0.068779  0.043768  0.005130      4.000000
  0.081284  0.043768  0.005125      4.000000
  0.093789  0.043768  0.005119      4.000000
  0.106294  0.043768  0.005114      4.000000
  0.118799  0.043768  0.005109      4.000000
  0.131305  0.043768  0.005104      4.000000
  0.143810  0.043768  0.005099      4.000000
  0.156315  0.043768  0.005094      4.000000
  0.168820  0.043768  0.005088      4.000000
 -0.168820  0.043768  0.005228      4.000000
 -0.156315  0.043768  0.005223      4.000000
 -0.143810  0.043768  0.005217      4.000000
 -0.131305  0.043768  0.005212      4.000000
 -0.118799  0.043768  0.005207      4.000000
 -0.106294  0.043768  0.005202      4.000000
 -0.093789  0.043768  0.005197      4.000000
 -0.081284  0.043768  0.005192      4.000000
 -0.068779  0.043768  0.005187      4.000000
 -0.056273  0.043768  0.005181      4.000000
 -0.043768  0.043768  0.005176      4.000000
 -0.031263  0.043768  0.005171      4.000000
 -0.018758  0.043768  0.005166      4.000000
 -0.006253  0.043768  0.005161      4.000000
  0.006253  0.056273  0.005156      4.000000
  0.018758  0.056273  0.005150      4.000000
  0.031263  0.056273  0.005145      4.000000
  0.043768  0.056273  0.005140      4.000000
  0.056273  0.056273  0.005135      4.000000
  0.068779  0.056273  0.005130      4.000000
  0.081284  0.056273  0.005125      4.000000
  0.093789  0.056273  0.005119      4.000000
  0.106294  0.056273  0.005114      4.000000
  0.118799  0.056273  0.005109      4.000000
  0.131305  0.056273  0.005104      4.000000
  0.143810  0.056273  0.005099      4.000000
  0.156315  0.056273  0.005094      4.000000
  0.168820  0.056273  0.005088      4.000000
 -0.168820  0.056273  0.005228      4.000000
 -0.156315  0.056273  0.005223      4.000000
 -0.143810  0.056273  0.005217      4.000000
 -0.131305  0.056273  0.005212      4.000000
 -0.118799  0.056273  0.005207      4.000000
 -0.106294  0.056273  0.005202      4.000000
 -0.093789  0.056273  0.005197      4.000000
 -0.081284  0.056273  0.005192      4.000000
 -0.068779  0.056273  0.005187      4.000000
 -0.056273  0.056273  0.005181      4.000000
 -0.043768  0.056273  0.005176      4.000000
 -0.031263  0.056273  0.005171      4.000000
 -0.018758  0.056273  0.005166      4.000000
 -0.006253  0.056273  0.005161      4.000000
  0.006253  0.068779  0.005156      4.000000
  0.018758  0.068779  0.005150      4.000000
  0.031263  0.068779  0.005145      4.000000
  0.043768  0.068779  0.005140      4.000000
  0.056273  0.068779  0.005135      4.000000
  0.068779  0.068779  0.005130      4.000000
  0.081284  0.068779  0.005125      4.000000
  0.093789  0.068779  0.005119      4.000000
  0.106294  0.068779  0.005114      4.000000
  0.118799  0.068779  0.005109      4.000000
  0.131305  0.068779  0.005104      4.000000
  0.143810  0.068779  0.005099      4.000000
  0.156315  0.068779  0.005094      4.000000
  0.168820  0.068779  0.005088      4.000000
 -0.168820  0.068779  0.005228      4.000000
 -0.156315  0.068779  0.005223      4.000000
 -0.143810  0.068779  0.005217      4.000000
 -0.131305  0.068779  0.005212      4.000000
 -0.118799  0.068779  0.005207      4.000000
 -0.106294  0.068779  0.005202      4.000000
 -0.093789  0.068779  0.005197      4.000000
 -0.081284  0.068779  0.005192      4.000000
 -0.068779  0.068779  0.005187      4.000000
 -0.056273  0.068779  0.005181      4.000000
 -0.043768  0.068779  0.005176      4.000000
 -0.031263  0.068779  0.005171      4.000000
 -0.018758  0.068779  0.005166      4.000000
 -0.006253  0.068779  0.005161      4.000000
  0.006253  0.081284  0.005156      4.000000
  0.018758  0.081284  0.005150      4.000000
  0.031263  0.081284  0.005145      4.000000
  0.043768  0.081284  0.005140      4.000000
  0.056273  0.081284  0.005135      4.000000
  0.068779  0.081284  0.005130      4.000000
  0.081284  0.081284  0.005125      4.000000
  0.093789  0.081284  0.005119      4.000000
  0.106294  0.081284  0.005114      4.000000
  0.118799  0.081284  0.005109      4.000000
  0.131305  0.081284  0.005104      4.000000
  0.143810  0.081284  0.005099      4.000000
  0.156315  0.081284  0.005094      4.000000
  0.168820  0.081284  0.005088      4.000000
 -0.168820  0.081284  0.005228      4.000000
 -0.156315  0.081284  0.005223      4.000000
 -0.143810  0.081284  0.005217      4.000000
 -0.131305  0.081284  0.005212      4.000000
 -0.118799  0.081284  0.005207      4.000000
 -0.106294  0.081284  0.005202      4.000000
 -0.093789  0.081284  0.005197      4.000000
 -0.081284  0.081284  0.005192      4.000000
 -0.068779  0.081284  0.005187      4.000000
 -0.056273  0.081284  0.005181      4.000000
 -0.043768  0.081284  0.005176      4.000000
 -0.031263  0.081284  0.005171      4.000000
 -0.018758  0.081284  0.005166      4.000000
 -0.006253  0.081284  0.005161      4.000000
  0.006253  0.093789  0.005156      4.000000
  0.018758  0.093789  0.005150      4.000000
  0.031263  0.093789  0.005145      4.000000
  0.043768  0.093789  0.005140      4.000000
  0.056273  0.093789  0.005135      4.000000
  0.068779  0.093789  0.005130      4.000000
  0.081284  0.093789  0.005125      4.000000
  0.093789  0.093789  0.005119      4.000000
  0.106294  0.093789  0.005114      4.000000
  0.118799  0.093789  0.005109      4.000000
  0.131305  0.093789  0.005104      4.000000
  0.143810  0.093789  0.005099      4.000000
  0.156315  0.093789  0.005094      4.000000
  0.168820  0.093789  0.005088      4.000000
 -0.168820  0.093789  0.005228      4.000000
 -0.156315  0.093789  0.005223      4.000000
 -0.143810  0.093789  0.005217      4.000000
 -0.131305  0.093789  0.005212      4.000000
 -0.118799  0.093789  0.005207      4.000000
 -0.106294  0.093789  0.005202      4.000000
 -0.093789  0.093789  0.005197      4.000000
 -0.081284  0.093789  0.005192      4.000000
 -0.068779  0.093789  0.005187      4.000000
 -0.056273  0.093789  0.005181      4.000000
 -0.043768  0.093789  0.005176      4.000000
 -0.031263  0.093789  0.005171      4.000000
 -0.018758  0.093789  0.005166      4.000000
 -0.006253  0.093789  0.005161      4.000000
  0.006253  0.106294  0.005156      4.000000
  0.018758  0.106294  0.005150      4.000000
  0.031263  0.106294  0.005145      4.000000
  0.043768  0.106294  0.005140      4.000000
  0.056273  0.106294  0.005135      4.000000
  0.068779  0.106294  0.005130      4.000000
  0.081284  0.106294  0.005125      4.000000
  0.093789  0.106294  0.005119      4.000000
  0.106294  0.106294  0.005114      4.000000
  0.118799  0.106294  0.005109      4.000000
  0.131305  0.106294  0.005104      4.000000
  0.143810  0.106294  0.005099      4.000000
  0.156315  0.106294  0.005094      4.000000
  0.168820  0.106294  0.005088      4.000000
 -0.168820  0.106294  0.005228      4.000000
 -0.156315  0.106294  0.005223      4.000000
 -0.143810  0.106294  0.005217      4.000000
 -0.131305  0.106294  0.005212      4.000000
 -0.118799  0.106294  0.005207      4.000000
 -0.106294  0.106294  0.005202      4.000000
 -0.093789  0.106294  0.005197      4.000000
 -0.081284  0.106294  0.005192      4.000000
 -0.068779  0.106294  0.005187      4.000000
 -0.056273  0.106294  0.005181      4.000000
 -0.043768  0.106294  0.005176      4.000000
 -0.031263  0.106294  0.005171      4.000000
 -0.018758  0.106294  0.005166      4.000000
 -0.006253  0.106294  0.005161      4.000000
  0.006253  0.118799  0.005156      4.000000
  0.018758  0.118799  0.005150      4.000000
  0.031263  0.118799  0.005145      4.000000
  0.043768  0.118799  0.005140      4.000000
  0.056273  0.118799  0.005135      4.000000
  0.068779  0.118799  0.005130      4.000000
  0.081284  0.118799  0.005125      4.000000
  0.093789  0.118799  0.005119      4.000000
  0.106294  0.118799  0.005114      4.000000
  0.118799  0.118799  0.005109      4.000000
  0.131305  0.118799  0.005104      4.000000
  0.143810  0.118799  0.005099      4.000000
  0.156315  0.118799  0.005094      4.000000
  0.168820  0.118799  0.005088      4.000000
 -0.168820  0.118799  0.005228      4.000000
 -0.156315  0.118799  0.005223      4.000000
 -0.143810  0.118799  0.005217      4.000000
 -0.131305  0.118799  0.005212      4.000000
 -0.118799  0.118799  0.005207      4.000000
 -0.106294  0.118799  0.005202      4.000000
 -0.093789  0.118799  0.005197      4.000000
 -0.081284  0.118799  0.005192      4.000000
 -0.068779  0.118799  0.005187      4.000000
 -0.056273  0.118799  0.005181      4.000000
 -0.043768  0.118799  0.005176      4.000000
 -0.031263  0.118799  0.005171      4.000000
 -0.018758  0.118799  0.005166      4.000000
 -0.006253  0.118799  0.005161      4.000000
  0.006253  0.131305  0.005156      4.000000
  0.018758  0.131305  0.005150      4.000000
  0.031263  0.131305  0.005145      4.000000
  0.043768  0.131305  0.005140      4.000000
  0.056273  0.131305  0.005135      4.000000
  0.068779  0.131305  0.005130      4.000000
  0.081284  0.131305  0.005125      4.000000
  0.093789  0.131305  0.005119      4.000000
  0.106294  0.131305  0.005114      4.000000
  0.118799  0.131305  0.005109      4.000000
  0.131305  0.131305  0.005104      4.000000
  0.143810  0.131305  0.005099      4.000000
  0.156315  0.131305  0.005094      4.000000
  0.168820  0.131305  0.005088      4.000000
 -0.168820  0.131305  0.005228      4.000000
 -0.156315  0.131305  0.005223      4.000000
 -0.143810  0.131305  0.005217      4.000000
 -0.131305  0.131305  0.005212      4.000000
 -0.118799  0.131305  0.005207      4.000000
 -0.106294  0.131305  0.005202      4.000000
 -0.093789  0.131305  0.005197      4.000000
 -0.081284  0.131305  0.005192      4.000000
 -0.068779  0.131305  0.005187      4.000000
 -0.056273  0.131305  0.005181      4.000000
 -0.043768  0.131305  0.005176      4.000000
 -0.031263  0.131305  0.005171      4.000000
 -0.018758  0.131305  0.005166      4.000000
 -0.006253  0.131305  0.005161      4.000000
  0.006253  0.143810  0.005156      4.000000
  0.018758  0.143810  0.005150      4.000000
  0.031263  0.143810  0.005145      4.000000
  0.043768  0.143810  0.005140      4.000000
  0.056273  0.143810  0.005135      4.000000
  0.068779  0.143810  0.005130      4.000000
  0.081284  0.143810  0.005125      4.000000
  0.093789  0.143810  0.005119      4.000000
  0.106294  0.143810  0.005114      4.000000
  0.118799  0.143810  0.005109      4.000000
  0.131305  0.143810  0.005104      4.000000
  0.143810  0.143810  0.005099      4.000000
  0.156315  0.143810  0.005094      4.000000
  0.168820  0.143810  0.005088      4.000000
 -0.168820  0.143810  0.005228      4.000000
 -0.156315  0.143810  0.005223      4.000000
 -0.143810  0.143810  0.005217      4.000000
 -0.131305  0.143810  0.005212      4.000000
 -0.118799  0.143810  0.005207      4.000000
 -0.106294  0.143810  0.005202      4.000000
 -0.093789  0.143810  0.005197      4.000000
 -0.081284  0.143810  0.005192      4.000000
 -0.068779  0.143810  0.005187      4.000000
 -0.056273  0.143810  0.005181      4.000000
 -0.043768  0.143810  0.005176      4.000000
 -0.031263  0.143810  0.005171      4.000000
 -0.018758  0.143810  0.005166      4.000000
 -0.006253  0.143810  0.005161      4.000000
  0.006253  0.156315  0.005156      4.000000
  0.018758  0.156315  0.005150      4.000000
  0.031263  0.156315  0.005145      4.000000
  0.043768  0.156315  0.005140      4.000000
  0.056273  0.156315  0.005135      4.000000
  0.068779  0.156315  0.005130      4.000000
  0.081284  0.156315  0.005125      4.000000
  0.093789  0.156315  0.005119      4.000000
  0.106294  0.156315  0.005114      4.000000
  0.118799  0.156315  0.005109      4.000000
  0.131305  0.156315  0.005104      4.000000
  0.143810  0.156315  0.005099      4.000000
  0.156315  0.156315  0.005094      4.000000
  0.168820  0.156315  0.005088      4.000000
 -0.168820  0.156315  0.005228      4.000000
 -0.156315  0.156315  0.005223      4.000000
 -0.143810  0.156315  0.005217      4.000000
 -0.131305  0.156315  0.005212      4.000000
 -0.118799  0.156315  0.005207      4.000000
 -0.106294  0.156315  0.005202      4.000000
 -0.093789  0.156315  0.005197      4.000000
 -0.081284  0.156315  0.005192      4.000000
 -0.068779  0.156315  0.005187      4.000000
 -0.056273  0.156315  0.005181      4.000000
 -0.043768  0.156315  0.005176      4.000000
 -0.031263  0.156315  0.005171      4.000000
 -0.018758  0.156315  0.005166      4.000000
 -0.006253  0.156315  0.005161      4.000000
  0.006253  0.168820  0.005156      4.000000
  0.018758  0.168820  0.005150      4.000000
  0.031263  0.168820  0.005145      4.000000
  0.043768  0.168820  0.005140      4.000000
  0.056273  0.168820  0.005135      4.000000
  0.068779  0.168820  0.005130      4.000000
  0.081284  0.168820  0.005125      4.000000
  0.093789  0.168820  0.005119      4.000000
  0.106294  0.168820  0.005114      4.000000
  0.118799  0.168820  0.005109      4.000000
  0.131305  0.168820  0.005104      4.000000
  0.143810  0.168820  0.005099      4.000000
  0.156315  0.168820  0.005094      4.000000
  0.168820  0.168820  0.005088      4.000000
 -0.168820  0.168820  0.005228      4.000000
 -0.156315  0.168820  0.005223      4.000000
 -0.143810  0.168820  0.005217      4.000000
 -0.131305  0.168820  0.005212      4.000000
 -0.118799  0.168820  0.005207      4.000000
 -0.106294  0.168820  0.005202      4.000000
 -0.093789  0.168820  0.005197      4.000000
 -0.081284  0.168820  0.005192      4.000000
 -0.068779  0.168820  0.005187      4.000000
 -0.056273  0.168820  0.005181      4.000000
 -0.043768  0.168820  0.005176      4.000000
 -0.031263  0.168820  0.005171      4.000000
 -0.018758  0.168820  0.005166      4.000000
 -0.006253  0.168820  0.005161      4.000000
  0.006253  0.006253  0.015472      4.000000
  0.018758  0.006253  0.015467      4.000000
  0.031263  0.006253  0.015461      4.000000
  0.043768  0.006253  0.015456      4.000000
  0.056273  0.006253  0.015451      4.000000
  0.068779  0.006253  0.015446      4.000000
  0.081284  0.006253  0.015441      4.000000
  0.093789  0.006253  0.015436      4.000000
  0.106294  0.006253  0.015431      4.000000
  0.118799  0.006253  0.015425      4.000000
  0.131305  0.006253  0.015420      4.000000
  0.143810  0.006253  0.015415      4.000000
  0.156315  0.006253  0.015410      4.000000
  0.168820  0.006253  0.015405      4.000000
 -0.168820  0.006253  0.015544      4.000000
 -0.156315  0.006253  0.015539      4.000000
 -0.143810  0.006253  0.015534      4.000000
 -0.131305  0.006253  0.015529      4.000000
 -0.118799  0.006253  0.015523      4.000000
 -0.106294  0.006253  0.015518      4.000000
 -0.093789  0.006253  0.015513      4.000000
 -0.081284  0.006253  0.015508      4.000000
 -0.068779  0.006253  0.015503      4.000000
 -0.056273  0.006253  0.015498      4.000000
 -0.043768  0.006253  0.015492      4.000000
 -0.031263  0.006253  0.015487      4.000000
 -0.018758  0.006253  0.015482      4.000000
 -0.006253  0.006253  0.015477      4.000000
  0.006253  0.018758  0.015472      4.000000
  0.018758  0.018758  0.015467      4.000000
  0.031263  0.018758  0.015461      4.000000
  0.043768  0.018758  0.015456      4.000000
  0.056273  0.018758  0.015451      4.000000
  0.068779  0.018758  0.015446      4.000000
  0.081284  0.018758  0.015441      4.000000
  0.093789  0.018758  0.015436      4.000000
  0.106294  0.018758  0.015431      4.000000
  0.118799  0.018758  0.015425      4.000000
  0.131305  0.018758  0.015420      4.000000
  0.143810  0.018758  0.015415      4.000000
  0.156315  0.018758  0.015410      4.000000
  0.168820  0.018758  0.015405      4.000000
 -0.168820  0.018758  0.015544      4.000000
 -0.156315  0.018758  0.015539      4.000000
 -0.143810  0.018758  0.015534      4.000000
 -0.131305  0.018758  0.015529      4.000000
 -0.118799  0.018758  0.015523      4.000000
 -0.106294  0.018758  0.015518      4.000000
 -0.093789  0.018758  0.015513      4.000000
 -0.081284  0.018758  0.015508      4.000000
 -0.068779  0.018758  0.015503      4.000000
 -0.056273  0.018758  0.015498      4.000000
 -0.043768  0.018758  0.015492      4.000000
 -0.031263  0.018758  0.015487      4.000000
 -0.018758  0.018758  0.015482      4.000000
 -0.006253  0.018758  0.015477      4.000000
  0.006253  0.031263  0.015472      4.000000
  0.018758  0.031263  0.015467      4.000000
  0.031263  0.031263  0.015461      4.000000
  0.043768  0.031263  0.015456      4.000000
  0.056273  0.031263  0.015451      4.000000
  0.068779  0.031263  0.015446      4.000000
  0.081284  0.031263  0.015441      4.000000
  0.093789  0.031263  0.015436      4.000000
  0.106294  0.031263  0.015431      4.000000
  0.118799  0.031263  0.015425      4.000000
  0.131305  0.031263  0.015420      4.000000
  0.143810  0.031263  0.015415      4.000000
  0.156315  0.031263  0.015410      4.000000
  0.168820  0.031263  0.015405      4.000000
 -0.168820  0.031263  0.015544      4.000000
 -0.156315  0.031263  0.015539      4.000000
 -0.143810  0.031263  0.015534      4.000000
 -0.131305  0.031263  0.015529      4.000000
 -0.118799  0.031263  0.015523      4.000000
 -0.106294  0.031263  0.015518      4.000000
 -0.093789  0.031263  0.015513      4.000000
 -0.081284  0.031263  0.015508      4.000000
 -0.068779  0.031263  0.015503      4.000000
 -0.056273  0.031263  0.015498      4.000000
 -0.043768  0.031263  0.015492      4.000000
 -0.031263  0.031263  0.015487      4.000000
 -0.018758  0.031263  0.015482      4.000000
 -0.006253  0.031263  0.015477      4.000000
  0.006253  0.043768  0.015472      4.000000
  0.018758  0.043768  0.015467      4.000000
  0.031263  0.043768  0.015461      4.000000
  0.043768  0.043768  0.015456      4.000000
  0.056273  0.043768  0.015451      4.000000
  0.068779  0.043768  0.015446      4.000000
  0.081284  0.043768  0.015441      4.000000
  0.093789  0.043768  0.015436      4.000000
  0.106294  0.043768  0.015431      4.000000
  0.118799  0.043768  0.015425      4.000000
  0.131305  0.043768  0.015420      4.000000
  0.143810  0.043768  0.015415      4.000000
  0.156315  0.043768  0.015410      4.000000
  0.168820  0.043768  0.015405      4.000000
 -0.168820  0.043768  0.015544      4.000000
 -0.156315  0.043768  0.015539      4.000000
 -0.143810  0.043768  0.015534      4.000000
 -0.131305  0.043768  0.015529      4.000000
 -0.118799  0.043768  0.015523      4.000000
 -0.106294  0.043768  0.015518      4.000000
 -0.093789  0.043768  0.015513      4.000000
 -0.081284  0.043768  0.015508      4.000000
 -0.068779  0.043768  0.015503      4.000000
 -0.056273  0.043768  0.015498      4.000000
 -0.043768  0.043768  0.015492      4.000000
 -0.031263  0.043768  0.015487      4.000000
 -0.018758  0.043768  0.015482      4.000000
 -0.006253  0.043768  0.015477      4.000000
  0.006253  0.056273  0.015472      4.000000
  0.018758  0.056273  0.015467      4.000000
  0.031263  0.056273  0.015461      4.000000
  0.043768  0.056273  0.015456      4.000000
  0.056273  0.056273  0.015451      4.000000
  0.068779  0.056273  0.015446      4.000000
  0.081284  0.056273  0.015441      4.000000
  0.093789  0.056273  0.015436      4.000000
  0.106294  0.056273  0.015431      4.000000
  0.118799  0.056273  0.015425      4.000000
  0.131305  0.056273  0.015420      4.000000
  0.143810  0.056273  0.015415      4.000000
  0.156315  0.056273  0.015410      4.000000
  0.168820  0.056273  0.015405      4.000000
 -0.168820  0.056273  0.015544      4.000000
 -0.156315  0.056273  0.015539      4.000000
 -0.143810  0.056273  0.015534      4.000000
 -0.131305  0.056273  0.015529      4.000000
 -0.118799  0.056273  0.015523      4.000000
 -0.106294  0.056273  0.015518      4.000000
 -0.093789  0.056273  0.015513      4.000000
 -0.081284  0.056273  0.015508      4.000000
 -0.068779  0.056273  0.015503      4.000000
 -0.056273  0.056273  0.015498      4.000000
 -0.043768  0.056273  0.015492      4.000000
 -0.031263  0.056273  0.015487      4.000000
 -0.018758  0.056273  0.015482      4.000000
 -0.006253  0.056273  0.015477      4.000000
  0.006253  0.068779  0.015472      4.000000
  0.018758  0.068779  0.015467      4.000000
  0.031263  0.068779  0.015461      4.000000
  0.043768  0.068779  0.015456      4.000000
  0.056273  0.068779  0.015451      4.000000
  0.068779  0.068779  0.015446      4.000000
  0.081284  0.068779  0.015441      4.000000
  0.093789  0.068779  0.015436      4.000000
  0.106294  0.068779  0.015431      4.000000
  0.118799  0.068779  0.015425      4.000000
  0.131305  0.068779  0.015420      4.000000
  0.143810  0.068779  0.015415      4.000000
  0.156315  0.068779  0.015410      4.000000
  0.168820  0.068779  0.015405      4.000000
 -0.168820  0.068779  0.015544      4.000000
 -0.156315  0.068779  0.015539      4.000000
 -0.143810  0.068779  0.015534      4.000000
 -0.131305  0.068779  0.015529      4.000000
 -0.118799  0.068779  0.015523      4.000000
 -0.106294  0.068779  0.015518      4.000000
 -0.093789  0.068779  0.015513      4.000000
 -0.081284  0.068779  0.015508      4.000000
 -0.068779  0.068779  0.015503      4.000000
 -0.056273  0.068779  0.015498      4.000000
 -0.043768  0.068779  0.015492      4.000000
 -0.031263  0.068779  0.015487      4.000000
 -0.018758  0.068779  0.015482      4.000000
 -0.006253  0.068779  0.015477      4.000000
  0.006253  0.081284  0.015472      4.000000
  0.018758  0.081284  0.015467      4.000000
  0.031263  0.081284  0.015461      4.000000
  0.043768  0.081284  0.015456      4.000000
  0.056273  0.081284  0.015451      4.000000
  0.068779  0.081284  0.015446      4.000000
  0.081284  0.081284  0.015441      4.000000
  0.093789  0.081284  0.015436      4.000000
  0.106294  0.081284  0.015431      4.000000
  0.118799  0.081284  0.015425      4.000000
  0.131305  0.081284  0.015420      4.000000
  0.143810  0.081284  0.015415      4.000000
  0.156315  0.081284  0.015410      4.000000
  0.168820  0.081284  0.015405      4.000000
 -0.168820  0.081284  0.015544      4.000000
 -0.156315  0.081284  0.015539      4.000000
 -0.143810  0.081284  0.015534      4.000000
 -0.131305  0.081284  0.015529      4.000000
 -0.118799  0.081284  0.015523      4.000000
 -0.106294  0.081284  0.015518      4.000000
 -0.093789  0.081284  0.015513      4.000000
 -0.081284  0.081284  0.015508      4.000000
 -0.068779  0.081284  0.015503      4.000000
 -0.056273  0.081284  0.015498      4.000000
 -0.043768  0.081284  0.015492      4.000000
 -0.031263  0.081284  0.015487      4.000000
 -0.018758  0.081284  0.015482      4.000000
 -0.006253  0.081284  0.015477      4.000000
  0.006253  0.093789  0.015472      4.000000
  0.018758  0.093789  0.015467      4.000000
  0.031263  0.093789  0.015461      4.000000
  0.043768  0.093789  0.015456      4.000000
  0.056273  0.093789  0.015451      4.000000
  0.068779  0.093789  0.015446      4.000000
  0.081284  0.093789  0.015441      4.000000
  0.093789  0.093789  0.015436      4.000000
  0.106294  0.093789  0.015431      4.000000
  0.118799  0.093789  0.015425      4.000000
  0.131305  0.093789  0.015420      4.000000
  0.143810  0.093789  0.015415      4.000000
  0.156315  0.093789  0.015410      4.000000
  0.168820  0.093789  0.015405      4.000000
 -0.168820  0.093789  0.015544      4.000000
 -0.156315  0.093789  0.015539      4.000000
 -0.143810  0.093789  0.015534      4.000000
 -0.131305  0.093789  0.015529      4.000000
 -0.118799  0.093789  0.015523      4.000000
 -0.106294  0.093789  0.015518      4.000000
 -0.093789  0.093789  0.015513      4.000000
 -0.081284  0.093789  0.015508      4.000000
 -0.068779  0.093789  0.015503      4.000000
 -0.056273  0.093789  0.015498      4.000000
 -0.043768  0.093789  0.015492      4.000000
 -0.031263  0.093789  0.015487      4.000000
 -0.018758  0.093789  0.015482      4.000000
 -0.006253  0.093789  0.015477      4.000000
  0.006253  0.106294  0.015472      4.000000
  0.018758  0.106294  0.015467      4.000000
  0.031263  0.106294  0.015461      4.000000
  0.043768  0.106294  0.015456      4.000000
  0.056273  0.106294  0.015451      4.000000
  0.068779  0.106294  0.015446      4.000000
  0.081284  0.106294  0.015441      4.000000
  0.093789  0.106294  0.015436      4.000000
  0.106294  0.106294  0.015431      4.000000
  0.118799  0.106294  0.015425      4.000000
  0.131305  0.106294  0.015420      4.000000
  0.143810  0.106294  0.015415      4.000000
  0.156315  0.106294  0.015410      4.000000
  0.168820  0.106294  0.015405      4.000000
 -0.168820  0.106294  0.015544      4.000000
 -0.156315  0.106294  0.015539      4.000000
 -0.143810  0.106294  0.015534      4.000000
 -0.131305  0.106294  0.015529      4.000000
 -0.118799  0.106294  0.015523      4.000000
 -0.106294  0.106294  0.015518      4.000000
 -0.093789  0.106294  0.015513      4.000000
 -0.081284  0.106294  0.015508      4.000000
 -0.068779  0.106294  0.015503      4.000000
 -0.056273  0.106294  0.015498      4.000000
 -0.043768  0.106294  0.015492      4.000000
 -0.031263  0.106294  0.015487      4.000000
 -0.018758  0.106294  0.015482      4.000000
 -0.006253  0.106294  0.015477      4.000000
  0.006253  0.118799  0.015472      4.000000
  0.018758  0.118799  0.015467      4.000000
  0.031263  0.118799  0.015461      4.000000
  0.043768  0.118799  0.015456      4.000000
  0.056273  0.118799  0.015451      4.000000
  0.068779  0.118799  0.015446      4.000000
  0.081284  0.118799  0.015441      4.000000
  0.093789  0.118799  0.015436      4.000000
  0.106294  0.118799  0.015431      4.000000
  0.118799  0.118799  0.015425      4.000000
  0.131305  0.118799  0.015420      4.000000
  0.143810  0.118799  0.015415      4.000000
  0.156315  0.118799  0.015410      4.000000
  0.168820  0.118799  0.015405      4.000000
 -0.168820  0.118799  0.015544      4.000000
 -0.156315  0.118799  0.015539      4.000000
 -0.143810  0.118799  0.015534      4.000000
 -0.131305  0.118799  0.015529      4.000000
 -0.118799  0.118799  0.015523      4.000000
 -0.106294  0.118799  0.015518      4.000000
 -0.093789  0.118799  0.015513      4.000000
 -0.081284  0.118799  0.015508      4.000000
 -0.068779  0.118799  0.015503      4.000000
 -0.056273  0.118799  0.015498      4.000000
 -0.043768  0.118799  0.015492      4.000000
 -0.031263  0.118799  0.015487      4.000000
 -0.018758  0.118799  0.015482      4.000000
 -0.006253  0.118799  0.015477      4.000000
  0.006253  0.131305  0.015472      4.000000
  0.018758  0.131305  0.015467      4.000000
  0.031263  0.131305  0.015461      4.000000
  0.043768  0.131305  0.015456      4.000000
  0.056273  0.131305  0.015451      4.000000
  0.068779  0.131305  0.015446      4.000000
  0.081284  0.131305  0.015441      4.000000
  0.093789  0.131305  0.015436      4.000000
  0.106294  0.131305  0.015431      4.000000
  0.118799  0.131305  0.015425      4.000000
  0.131305  0.131305  0.015420      4.000000
  0.143810  0.131305  0.015415      4.000000
  0.156315  0.131305  0.015410      4.000000
  0.168820  0.131305  0.015405      4.000000
 -0.168820  0.131305  0.015544      4.000000
 -0.156315  0.131305  0.015539      4.000000
 -0.143810  0.131305  0.015534      4.000000
 -0.131305  0.131305  0.015529      4.000000
 -0.118799  0.131305  0.015523      4.000000
 -0.106294  0.131305  0.015518      4.000000
 -0.093789  0.131305  0.015513      4.000000
 -0.081284  0.131305  0.015508      4.000000
 -0.068779  0.131305  0.015503      4.000000
 -0.056273  0.131305  0.015498      4.000000
 -0.043768  0.131305  0.015492      4.000000
 -0.031263  0.131305  0.015487      4.000000
 -0.018758  0.131305  0.015482      4.000000
 -0.006253  0.131305  0.015477      4.000000
  0.006253  0.143810  0.015472      4.000000
  0.018758  0.143810  0.015467      4.000000
  0.031263  0.143810  0.015461      4.000000
  0.043768  0.143810  0.015456      4.000000
  0.056273  0.143810  0.015451      4.000000
  0.068779  0.143810  0.015446      4.000000
  0.081284  0.143810  0.015441      4.000000
  0.093789  0.143810  0.015436      4.000000
  0.106294  0.143810  0.015431      4.000000
  0.118799  0.143810  0.015425      4.000000
  0.131305  0.143810  0.015420      4.000000
  0.143810  0.143810  0.015415      4.000000
  0.156315  0.143810  0.015410      4.000000
  0.168820  0.143810  0.015405      4.000000
 -0.168820  0.143810  0.015544      4.000000
 -0.156315  0.143810  0.015539      4.000000
 -0.143810  0.143810  0.015534      4.000000
 -0.131305  0.143810  0.015529      4.000000
 -0.118799  0.143810  0.015523      4.000000
 -0.106294  0.143810  0.015518      4.000000
 -0.093789  0.143810  0.015513      4.000000
 -0.081284  0.143810  0.015508      4.000000
 -0.068779  0.143810  0.015503      4.000000
 -0.056273  0.143810  0.015498      4.000000
 -0.043768  0.143810  0.015492      4.000000
 -0.031263  0.143810  0.015487      4.000000
 -0.018758  0.143810  0.015482      4.000000
 -0.006253  0.143810  0.015477      4.000000
  0.006253  0.156315  0.015472      4.000000
  0.018758  0.156315  0.015467      4.000000
  0.031263  0.156315  0.015461      4.000000
  0.043768  0.156315  0.015456      4.000000
  0.056273  0.156315  0.015451      4.000000
  0.068779  0.156315  0.015446      4.000000
  0.081284  0.156315  0.015441      4.000000
  0.093789  0.156315  0.015436      4.000000
  0.106294  0.156315  0.015431      4.000000
  0.118799  0.156315  0.015425      4.000000
  0.131305  0.156315  0.015420      4.000000
  0.143810  0.156315  0.015415      4.000000
[...]
     18       5.0284     -0.00000
     19       5.2018     -0.00000
     20       5.7117     -0.00000
     21       6.1047     -0.00000
     22       6.5800     -0.00000
     23       6.9221     -0.00000
     24       7.3034     -0.00000
     25       8.6836      0.00000
     26       8.8722      0.00000
     27      10.1033      0.00000
     28      10.2206      0.00000
     29      10.8796      0.00000
     30      11.0855      0.00000
     31      11.5725      0.00000
     32      12.0181      0.00000

 k-point   775 :      -0.3393    0.4821    0.3750
  band No.  band energies     occupation 
      1      -2.8519      2.00000
      2      -2.2557      2.00000
      3      -2.2055      2.00000
      4      -1.6207      2.00000
      5      -1.1557      2.00000
      6      -0.5688      2.00000
      7       0.2508      2.00000
      8       0.8356      2.00000
      9       1.9896      0.70519
     10       2.5584     -0.00017
     11       2.8524     -0.00000
     12       3.4263     -0.00000
     13       3.5274     -0.00000
     14       4.0521     -0.00000
     15       4.1430     -0.00000
     16       4.6072     -0.00000
     17       4.6385     -0.00000
     18       5.1179     -0.00000
     19       5.5879     -0.00000
     20       6.0638     -0.00000
     21       6.1011     -0.00000
     22       6.5795     -0.00000
     23       7.4686      0.00000
     24       7.8725      0.00000
     25       8.6212      0.00000
     26       9.0591      0.00000
     27      10.4395      0.00000
     28      10.5608      0.00000
     29      11.0305      0.00000
     30      11.5066      0.00000
     31      11.7613      0.00000
     32      12.0121      0.00000

 k-point   776 :      -0.3036    0.4821    0.3750
  band No.  band energies     occupation 
      1      -3.2437      2.00000
      2      -2.6421      2.00000
      3      -2.5936      2.00000
      4      -2.0034      2.00000
      5      -1.5407      2.00000
      6      -0.9463      2.00000
      7      -0.1309      2.00000
      8       0.4619      2.00000
      9       1.6188      2.03917
     10       2.1958     -0.07083
     11       3.5372     -0.00000
     12       3.8964     -0.00000
     13       4.1047     -0.00000
     14       4.2992     -0.00000
     15       4.4385     -0.00000
     16       4.8710     -0.00000
     17       5.2878     -0.00000
     18       5.3713     -0.00000
     19       5.8243     -0.00000
     20       5.9319     -0.00000
     21       6.7466     -0.00000
     22       7.2693     -0.00000
     23       7.8026      0.00000
     24       8.2084      0.00000
     25       8.7389      0.00000
     26       9.2173      0.00000
     27      10.6808      0.00000
     28      11.0009      0.00000
     29      11.1120      0.00000
     30      11.5460      0.00000
     31      11.6018      0.00000
     32      12.4032      0.00000

 k-point   777 :      -0.2679    0.4821    0.3750
  band No.  band energies     occupation 
      1      -3.5949      2.00000
      2      -2.9897      2.00000
      3      -2.9421      2.00000
      4      -2.3482      2.00000
      5      -1.8868      2.00000
      6      -1.2872      2.00000
      7      -0.4744      2.00000
      8       0.1236      2.00000
      9       1.2824      2.00002
     10       1.8636      1.68557
     11       3.4026     -0.00000
     12       3.9189     -0.00000
     13       4.5494     -0.00000
     14       4.9377     -0.00000
     15       5.1521     -0.00000
     16       5.1837     -0.00000
     17       5.4888     -0.00000
     18       5.7253     -0.00000
     19       6.2093     -0.00000
     20       6.7516     -0.00000
     21       7.5280      0.00000
     22       7.7090      0.00000
     23       8.0548      0.00000
     24       8.1931      0.00000
     25       9.2496      0.00000
     26       9.4869      0.00000
     27      10.7094      0.00000
     28      10.9630      0.00000
     29      11.2484      0.00000
     30      11.7549      0.00000
     31      11.8734      0.00000
     32      12.0876      0.00000

 k-point   778 :      -0.2321    0.4821    0.3750
  band No.  band energies     occupation 
      1      -3.9040      2.00000
      2      -3.2961      2.00000
      3      -3.2491      2.00000
      4      -2.6524      2.00000
      5      -2.1919      2.00000
      6      -1.5886      2.00000
      7      -0.7775      2.00000
      8      -0.1759      2.00000
      9       0.9848      2.00000
     10       1.5689      2.02014
     11       3.1258     -0.00000
     12       3.6395     -0.00000
     13       4.6918     -0.00000
     14       5.1960     -0.00000
     15       5.4327     -0.00000
     16       5.9943     -0.00000
     17       6.0603     -0.00000
     18       6.6046     -0.00000
     19       7.0396     -0.00000
     20       7.5504      0.00000
     21       7.5804      0.00000
     22       8.0530      0.00000
     23       8.3465      0.00000
     24       8.8158      0.00000
     25       9.5491      0.00000
     26       9.7503      0.00000
     27      10.9411      0.00000
     28      11.0191      0.00000
     29      11.0969      0.00000
     30      11.5700      0.00000
     31      11.9168      0.00000
     32      12.5917      0.00000

 k-point   779 :      -0.1964    0.4821    0.3750
  band No.  band energies     occupation 
      1      -4.1701      2.00000
      2      -3.5602      2.00000
      3      -3.5137      2.00000
      4      -2.9147      2.00000
      5      -2.4550      2.00000
      6      -1.8488      2.00000
      7      -1.0388      2.00000
      8      -0.4345      2.00000
      9       0.7278      2.00000
     10       1.3139      2.00006
     11       2.8783     -0.00000
     12       3.3918     -0.00000
     13       4.4481     -0.00000
     14       4.9598     -0.00000
     15       6.3087     -0.00000
     16       6.8877     -0.00000
     17       6.9706     -0.00000
     18       7.2865     -0.00000
     19       7.5257      0.00000
     20       7.8126      0.00000
     21       8.0281      0.00000
     22       8.5682      0.00000
     23       9.0192      0.00000
     24       9.4270      0.00000
     25       9.5824      0.00000
     26      10.0225      0.00000
     27      10.7585      0.00000
     28      11.2817      0.00000
     29      11.4026      0.00000
     30      11.4545      0.00000
     31      11.9939      0.00000
     32      12.2601      0.00000

 k-point   780 :      -0.1607    0.4821    0.3750
  band No.  band energies     occupation 
      1      -4.3925      2.00000
      2      -3.7811      2.00000
      3      -3.7350      2.00000
      4      -3.1342      2.00000
      5      -2.6752      2.00000
      6      -2.0667      2.00000
      7      -1.2574      2.00000
      8      -0.6513      2.00000
      9       0.5126      2.00000
     10       1.1001      2.00000
     11       2.6688     -0.00001
     12       3.1827     -0.00000
     13       4.2413     -0.00000
     14       4.7523     -0.00000
     15       6.8969     -0.00000
     16       7.4634      0.00000
     17       7.4907      0.00000
     18       7.8976      0.00000
     19       8.0499      0.00000
     20       8.4659      0.00000
     21       8.9338      0.00000
     22       9.1039      0.00000
     23       9.4872      0.00000
     24       9.6008      0.00000
     25      10.1253      0.00000
     26      10.1878      0.00000
     27      10.8889      0.00000
     28      11.1265      0.00000
     29      11.3449      0.00000
     30      11.7993      0.00000
     31      11.9539      0.00000
     32      12.9069      0.00000

 k-point   781 :      -0.1250    0.4821    0.3750
  band No.  band energies     occupation 
      1      -4.5709      2.00000
      2      -3.9583      2.00000
      3      -3.9125      2.00000
      4      -3.3103      2.00000
      5      -2.8518      2.00000
      6      -2.2417      2.00000
      7      -1.4328      2.00000
      8      -0.8253      2.00000
      9       0.3398      2.00000
     10       0.9284      2.00000
     11       2.4998     -0.00079
     12       3.0142     -0.00000
     13       4.0744     -0.00000
     14       4.5849     -0.00000
     15       6.8475     -0.00000
     16       7.4041     -0.00000
     17       8.3799      0.00000
     18       8.7264      0.00000
     19       8.9473      0.00000
     20       9.1615      0.00000
     21       9.2951      0.00000
     22       9.6668      0.00000
     23       9.8853      0.00000
     24      10.1242      0.00000
     25      10.3703      0.00000
     26      10.5795      0.00000
     27      11.0209      0.00000
     28      11.2241      0.00000
     29      11.4910      0.00000
     30      11.7378      0.00000
     31      12.1832      0.00000
     32      13.3226      0.00000

 k-point   782 :      -0.0893    0.4821    0.3750
  band No.  band energies     occupation 
      1      -4.7050      2.00000
      2      -4.0914      2.00000
      3      -4.0460      2.00000
      4      -3.4427      2.00000
      5      -2.9847      2.00000
      6      -2.3733      2.00000
      7      -1.5646      2.00000
      8      -0.9562      2.00000
      9       0.2099      2.00000
     10       0.7992      2.00000
     11       2.3724     -0.01176
     12       2.8872     -0.00000
     13       3.9486     -0.00000
     14       4.4587     -0.00000
     15       6.7476     -0.00000
     16       7.3059     -0.00000
     17       8.8130      0.00000
     18       9.3536      0.00000
     19       9.3942      0.00000
     20       9.9259      0.00000
     21       9.9741      0.00000
     22       9.9941      0.00000
     23      10.5164      0.00000
     24      10.5840      0.00000
     25      10.7936      0.00000
     26      10.8653      0.00000
     27      11.2487      0.00000
     28      11.3983      0.00000
     29      11.6620      0.00000
     30      11.8758      0.00000
     31      12.5904      0.00000
     32      12.7283      0.00000

 k-point   783 :      -0.0536    0.4821    0.3750
  band No.  band energies     occupation 
      1      -4.7945      2.00000
      2      -4.1803      2.00000
      3      -4.1351      2.00000
      4      -3.5311      2.00000
      5      -3.0733      2.00000
      6      -2.4612      2.00000
      7      -1.6527      2.00000
      8      -1.0436      2.00000
      9       0.1231      2.00000
     10       0.7129      2.00000
     11       2.2872     -0.04016
     12       2.8023     -0.00000
     13       3.8644     -0.00000
     14       4.3743     -0.00000
     15       6.6740     -0.00000
     16       7.2341     -0.00000
     17       8.7570      0.00000
     18       9.3260      0.00000
     19       9.9112      0.00000
     20      10.3631      0.00000
     21      10.5258      0.00000
     22      10.7567      0.00000
     23      10.9131      0.00000
     24      10.9843      0.00000
     25      11.2454      0.00000
     26      11.3627      0.00000
     27      11.4946      0.00000
     28      11.7579      0.00000
     29      11.9936      0.00000
     30      12.3412      0.00000
     31      12.9615      0.00000
     32      13.1668      0.00000

 k-point   784 :      -0.0179    0.4821    0.3750
  band No.  band energies     occupation 
      1      -4.8392      2.00000
      2      -4.2248      2.00000
      3      -4.1796      2.00000
      4      -3.5753      2.00000
      5      -3.1177      2.00000
      6      -2.5052      2.00000
      7      -1.6967      2.00000
      8      -1.0874      2.00000
      9       0.0797      2.00000
     10       0.6697      2.00000
     11       2.2445     -0.05946
     12       2.7598     -0.00000
     13       3.8223     -0.00000
     14       4.3321     -0.00000
     15       6.6361     -0.00000
     16       7.1971     -0.00000
     17       8.7232      0.00000
     18       9.2958      0.00000
     19       9.8711      0.00000
     20      10.4939      0.00000
     21      10.7512      0.00000
     22      11.1847      0.00000
     23      11.2162      0.00000
     24      11.3853      0.00000
     25      11.7302      0.00000
     26      11.7761      0.00000
     27      11.8372      0.00000
     28      12.3065      0.00000
     29      12.6507      0.00000
     30      12.8273      0.00000
     31      13.4334      0.00000
     32      13.9854      0.00000


--------------------------------------------------------------------------------------------------------


 soft charge-density along one line, spin component           1
         0         1         2         3         4         5         6         7         8         9
 total charge-density along one line
 
 pseudopotential strength for first ion, spin component:           1
  8.652  14.756  -0.000   0.000   0.000  -0.000   0.001   0.000
 14.756  25.165  -0.000   0.000   0.000  -0.000   0.001   0.000
 -0.000  -0.000   1.980   0.000  -0.000   5.750   0.000  -0.000
  0.000   0.000   0.000   1.980   0.000   0.000   5.750   0.000
  0.000   0.000  -0.000   0.000   1.980  -0.000   0.000   5.750
 -0.000  -0.000   5.750   0.000  -0.000  16.590   0.000  -0.000
  0.001   0.001   0.000   5.750   0.000   0.000  16.590   0.000
  0.000   0.000  -0.000   0.000   5.750  -0.000   0.000  16.590
 total augmentation occupancy for first ion, spin component:           1
  3.340  -0.821   0.000  -0.003  -0.000   0.000   0.001   0.000
 -0.821   0.268   0.000   0.005  -0.000   0.000  -0.000   0.000
  0.000   0.000   1.115   0.000  -0.000  -0.073  -0.000   0.000
 -0.003   0.005   0.000   1.135  -0.000  -0.000  -0.073   0.000
 -0.000  -0.000  -0.000  -0.000   1.115   0.000   0.000  -0.073
  0.000   0.000  -0.073  -0.000   0.000   0.005   0.000  -0.000
  0.001  -0.000  -0.000  -0.073   0.000   0.000   0.005  -0.000
  0.000   0.000   0.000   0.000  -0.073  -0.000  -0.000   0.005


------------------------ aborting loop because EDIFF is reached ----------------------------------------


    CHARGE:  cpu time    1.5003: real time    1.5512
    FORLOC:  cpu time    0.0011: real time    0.0011
    FORNL :  cpu time    6.9670: real time    7.1267
    STRESS:  cpu time   20.4133: real time   20.9053
    FORCOR:  cpu time    0.0141: real time    0.0141
    FORHAR:  cpu time    0.0039: real time    0.0039
    MIXING:  cpu time    0.0012: real time    0.0012
    OFIELD:  cpu time    0.0000: real time    0.0000

  FORCE on cell =-STRESS in cart. coord.  units (eV):
  Direction    XX          YY          ZZ          XY          YZ          ZX
  --------------------------------------------------------------------------------------
  Alpha Z    -0.61174    -0.61174    -0.61174
  Ewald    1714.94865  1714.94869 -2004.51112    -0.00000     0.00000    -0.03179
  Hartree  1759.94736  1759.94736 -1759.38514    -0.00000     0.00000    -0.00011
  E(xc)     -50.49945   -50.49946   -50.61527    -0.00000    -0.00000     0.00093
  Local   -3620.05131 -3620.05135  3620.09201     0.00000    -0.00000     0.03257
  n-local   115.22648   115.22649   113.24730    -0.00000     0.00000    -0.01051
  augment    -6.55757    -6.55757    -6.49392     0.00000     0.00000     0.00056
  Kinetic    86.10420    86.10420    88.82537     0.00000     0.00002    -0.00034
  Fock        0.00000     0.00000     0.00000     0.00000     0.00000     0.00000
  -------------------------------------------------------------------------------------
  Total      -1.49338    -1.49338     0.54750     0.00000    -0.00000    -0.00869
  in kB     -12.10493   -12.10493     4.43783     0.00000    -0.00000    -0.07040
  external pressure =       -6.59 kB  Pullay stress =        0.00 kB


 VOLUME and BASIS-vectors are now :
 -----------------------------------------------------------------------------
  energy-cutoff  :      400.00
  volume of cell :      197.66
      direct lattice vectors                 reciprocal lattice vectors
     2.855954575  0.000000000  0.000000000     0.350145625  0.000000000 -0.000144488
    -0.000000000  2.855954575  0.000000000     0.000000000  0.350145625  0.000000000
     0.010000000  0.000000000 24.233578159    -0.000000000 -0.000000000  0.041265058

  length of vectors
     2.855954575  2.855954575 24.233580222     0.350145655  0.350145625  0.041265058


 FORCES acting on ions
    electron-ion (+dipol)            ewald-force                    non-local-force                 convergence-correction
 -----------------------------------------------------------------------------------------------
   -.299E-03 0.515E-14 -.150E+03   0.103E-03 -.939E-14 0.150E+03   0.219E-03 0.000E+00 0.271E-01   0.345E-08 0.414E-17 -.307E-03
   0.421E-02 0.105E-13 -.246E+03   -.321E-02 -.175E-13 0.246E+03   -.187E-02 0.000E+00 0.804E+00   -.348E-08 -.265E-17 -.205E-03
   -.658E-04 -.142E-13 0.500E+02   0.177E-05 -.312E-16 -.499E+02   0.153E-03 0.000E+00 -.103E+00   0.340E-08 0.497E-19 0.830E-04
   0.658E-04 0.241E-13 -.500E+02   -.177E-05 0.590E-15 0.499E+02   -.153E-03 0.000E+00 0.103E+00   -.340E-08 -.436E-17 -.830E-04
   -.421E-02 -.584E-14 0.246E+03   0.321E-02 0.181E-13 -.246E+03   0.187E-02 0.000E+00 -.804E+00   0.348E-08 0.766E-17 0.205E-03
   0.299E-03 -.453E-13 0.150E+03   -.103E-03 0.995E-14 -.150E+03   -.219E-03 0.000E+00 -.271E-01   -.345E-08 -.218E-16 0.307E-03
 -----------------------------------------------------------------------------------------------
   -.100E-13 -.255E-13 0.148E-11   0.275E-14 0.168E-14 0.000E+00   0.108E-18 0.000E+00 -.111E-15   -.104E-15 -.170E-16 0.771E-13
 
 
 POSITION                                       TOTAL-FORCE (eV/Angst)
 -----------------------------------------------------------------------------------
      0.00875      0.00000     21.20438         0.000023      0.000000     -0.063620
      1.43756      1.42798     23.22385        -0.000876      0.000000      0.089511
      0.00708      0.00000     17.16545         0.000089      0.000000     -0.021352
      1.43589      1.42798     19.18492        -0.000089      0.000000      0.021352
      0.00542      0.00000     13.12652         0.000876      0.000000     -0.089511
      1.43423      1.42798     15.14599        -0.000023      0.000000      0.063620
 -----------------------------------------------------------------------------------
    total drift:                               -0.000000     -0.000000      0.000000


--------------------------------------------------------------------------------------------------------



  FREE ENERGIE OF THE ION-ELECTRON SYSTEM (eV)
  ---------------------------------------------------
  free  energy   TOTEN  =       -21.53145673 eV

  energy  without entropy=      -21.53176381  energy(sigma->0) =      -21.53155909
 


--------------------------------------------------------------------------------------------------------


    POTLOK:  cpu time    0.0165: real time    0.0165


--------------------------------------------------------------------------------------------------------


     LOOP+:  cpu time  706.0893: real time  725.2454
    4ORBIT:  cpu time    0.0000: real time    0.0000

 total amount of memory used by VASP MPI-rank0    83663. kBytes
=======================================================================

   base      :      30000. kBytes
   nonlr-proj:       1838. kBytes
   fftplans  :       1043. kBytes
   grid      :       3800. kBytes
   one-center:         18. kBytes
   wavefun   :      46964. kBytes
 
  
  
 General timing and accounting informations for this job:
 ========================================================
  
                  Total CPU time used (sec):      719.408
                            User time (sec):      611.873
                          System time (sec):      107.535
                         Elapsed time (sec):      739.958
  
                   Maximum memory used (kb):      310680.
                   Average memory used (kb):           0.
  
                          Minor page faults:       225606
                          Major page faults:           86
                 Voluntary context switches:          761
