<?xml version="1.0" encoding="ISO-8859-1"?>
<modeling>
 <generator>
  <i name="program" type="string">vasp </i>
  <i name="version" type="string">5.4.4.18Apr17-6-g9f103f2a35  </i>
  <i name="subversion" type="string">(build Nov 07 2022 11:18:25) complex            parallel </i>
  <i name="platform" type="string">LinuxIFC </i>
  <i name="date" type="string">2024 05 28 </i>
  <i name="time" type="string">09:34:17 </i>
 </generator>
 <incar>
  <i type="string" name="SYSTEM"> Al fcc relaxation</i>
  <i type="string" name="PREC">accurate</i>
  <i type="string" name="ALGO"> Fast</i>
  <i type="int" name="NELM">    60</i>
  <i type="int" name="NELMIN">     4</i>
  <i type="int" name="IBRION">     2</i>
  <i name="EDIFF">      0.00000100</i>
  <i type="int" name="NSW">     0</i>
  <i type="int" name="ISIF">     3</i>
  <i name="ENCUT">    400.00000000</i>
  <i type="string" name="LREAL"> Auto</i>
  <i type="int" name="ISMEAR">     1</i>
  <i name="SIGMA">      0.20000000</i>
  <i name="KSPACING">      0.08000000</i>
  <i type="logical" name="LWAVE"> F  </i>
  <i type="logical" name="LCHARG"> F  </i>
  <v type="int" name="KPOINT_BSE">    -1     0     0     0</v>
  <i type="int" name="NELM">    60</i>
 </incar>
 <structure name="primitive_cell" >
  <crystal>
   <varray name="basis" >
    <v>       2.85595457       0.00000000       0.00000000 </v>
    <v>      -0.00000000       2.85595457       0.00000000 </v>
    <v>       0.01000000       0.00000000      24.23357816 </v>
   </varray>
   <i name="volume">    197.66061157 </i>
   <varray name="rec_basis" >
    <v>       0.35014563       0.00000000      -0.00014449 </v>
    <v>       0.00000000       0.35014563       0.00000000 </v>
    <v>      -0.00000000      -0.00000000       0.04126506 </v>
   </varray>
  </crystal>
  <varray name="positions" >
   <v>       0.00000000       0.00000000      -0.12500000 </v>
   <v>      -0.50000000      -0.50000000      -0.04166667 </v>
   <v>      -0.50000000      -0.50000000      -0.20833333 </v>
   <v>       0.00000000       0.00000000      -0.29166667 </v>
   <v>      -0.50000000      -0.50000000      -0.37500000 </v>
   <v>       0.00000000       0.00000000      -0.45833333 </v>
  </varray>
 </structure>
 <varray name="primitive_index" >
  <v type="int" >        1 </v>
  <v type="int" >        2 </v>
  <v type="int" >        4 </v>
  <v type="int" >        3 </v>
  <v type="int" >        6 </v>
  <v type="int" >        5 </v>
 </varray>
 <kpoints>
  <generation param="Monkhorst-Pack">
   <v type="int" name="divisions">      28       28        4 </v>
   <v name="usershift">      0.00000000       0.00000000       0.00000000 </v>
   <v name="genvec1">      0.03571429      -0.00000000       0.00000000 </v>
   <v name="genvec2">      0.00000000       0.03571429       0.00000000 </v>
   <v name="genvec3">      0.00000000       0.00000000       0.25000000 </v>
   <v name="shift">      0.50000000       0.50000000       0.50000000 </v>
  </generation>
  <varray name="kpointlist" >
   <v>       0.01785714       0.01785714       0.12500000 </v>
   <v>       0.05357143       0.01785714       0.12500000 </v>
   <v>       0.08928571       0.01785714       0.12500000 </v>
   <v>       0.12500000       0.01785714       0.12500000 </v>
   <v>       0.16071429       0.01785714       0.12500000 </v>
   <v>       0.19642857       0.01785714       0.12500000 </v>
   <v>       0.23214286       0.01785714       0.12500000 </v>
   <v>       0.26785714       0.01785714       0.12500000 </v>
   <v>       0.30357143       0.01785714       0.12500000 </v>
   <v>       0.33928571       0.01785714       0.12500000 </v>
   <v>       0.37500000       0.01785714       0.12500000 </v>
   <v>       0.41071429       0.01785714       0.12500000 </v>
   <v>       0.44642857       0.01785714       0.12500000 </v>
   <v>       0.48214286       0.01785714       0.12500000 </v>
   <v>      -0.48214286       0.01785714       0.12500000 </v>
   <v>      -0.44642857       0.01785714       0.12500000 </v>
   <v>      -0.41071429       0.01785714       0.12500000 </v>
   <v>      -0.37500000       0.01785714       0.12500000 </v>
   <v>      -0.33928571       0.01785714       0.12500000 </v>
   <v>      -0.30357143       0.01785714       0.12500000 </v>
   <v>      -0.26785714       0.01785714       0.12500000 </v>
   <v>      -0.23214286       0.01785714       0.12500000 </v>
   <v>      -0.19642857       0.01785714       0.12500000 </v>
   <v>      -0.16071429       0.01785714       0.12500000 </v>
   <v>      -0.12500000       0.01785714       0.12500000 </v>
   <v>      -0.08928571       0.01785714       0.12500000 </v>
   <v>      -0.05357143       0.01785714       0.12500000 </v>
   <v>      -0.01785714       0.01785714       0.12500000 </v>
   <v>       0.01785714       0.05357143       0.12500000 </v>
   <v>       0.05357143       0.05357143       0.12500000 </v>
   <v>       0.08928571       0.05357143       0.12500000 </v>
   <v>       0.12500000       0.05357143       0.12500000 </v>
   <v>       0.16071429       0.05357143       0.12500000 </v>
   <v>       0.19642857       0.05357143       0.12500000 </v>
   <v>       0.23214286       0.05357143       0.12500000 </v>
   <v>       0.26785714       0.05357143       0.12500000 </v>
   <v>       0.30357143       0.05357143       0.12500000 </v>
   <v>       0.33928571       0.05357143       0.12500000 </v>
   <v>       0.37500000       0.05357143       0.12500000 </v>
   <v>       0.41071429       0.05357143       0.12500000 </v>
   <v>       0.44642857       0.05357143       0.12500000 </v>
   <v>       0.48214286       0.05357143       0.12500000 </v>
   <v>      -0.48214286       0.05357143       0.12500000 </v>
   <v>      -0.44642857       0.05357143       0.12500000 </v>
   <v>      -0.41071429       0.05357143       0.12500000 </v>
   <v>      -0.37500000       0.05357143       0.12500000 </v>
   <v>      -0.33928571       0.05357143       0.12500000 </v>
   <v>      -0.30357143       0.05357143       0.12500000 </v>
   <v>      -0.26785714       0.05357143       0.12500000 </v>
   <v>      -0.23214286       0.05357143       0.12500000 </v>
   <v>      -0.19642857       0.05357143       0.12500000 </v>
   <v>      -0.16071429       0.05357143       0.12500000 </v>
   <v>      -0.12500000       0.05357143       0.12500000 </v>
   <v>      -0.08928571       0.05357143       0.12500000 </v>
   <v>      -0.05357143       0.05357143       0.12500000 </v>
   <v>      -0.01785714       0.05357143       0.12500000 </v>
   <v>       0.01785714       0.08928571       0.12500000 </v>
   <v>       0.05357143       0.08928571       0.12500000 </v>
   <v>       0.08928571       0.08928571       0.12500000 </v>
   <v>       0.12500000       0.08928571       0.12500000 </v>
   <v>       0.16071429       0.08928571       0.12500000 </v>
   <v>       0.19642857       0.08928571       0.12500000 </v>
   <v>       0.23214286       0.08928571       0.12500000 </v>
   <v>       0.26785714       0.08928571       0.12500000 </v>
   <v>       0.30357143       0.08928571       0.12500000 </v>
   <v>       0.33928571       0.08928571       0.12500000 </v>
   <v>       0.37500000       0.08928571       0.12500000 </v>
   <v>       0.41071429       0.08928571       0.12500000 </v>
   <v>       0.44642857       0.08928571       0.12500000 </v>
   <v>       0.48214286       0.08928571       0.12500000 </v>
   <v>      -0.48214286       0.08928571       0.12500000 </v>
   <v>      -0.44642857       0.08928571       0.12500000 </v>
   <v>      -0.41071429       0.08928571       0.12500000 </v>
   <v>      -0.37500000       0.08928571       0.12500000 </v>
   <v>      -0.33928571       0.08928571       0.12500000 </v>
   <v>      -0.30357143       0.08928571       0.12500000 </v>
   <v>      -0.26785714       0.08928571       0.12500000 </v>
   <v>      -0.23214286       0.08928571       0.12500000 </v>
   <v>      -0.19642857       0.08928571       0.12500000 </v>
   <v>      -0.16071429       0.08928571       0.12500000 </v>
   <v>      -0.12500000       0.08928571       0.12500000 </v>
   <v>      -0.08928571       0.08928571       0.12500000 </v>
   <v>      -0.05357143       0.08928571       0.12500000 </v>
   <v>      -0.01785714       0.08928571       0.12500000 </v>
   <v>       0.01785714       0.12500000       0.12500000 </v>
   <v>       0.05357143       0.12500000       0.12500000 </v>
   <v>       0.08928571       0.12500000       0.12500000 </v>
   <v>       0.12500000       0.12500000       0.12500000 </v>
   <v>       0.16071429       0.12500000       0.12500000 </v>
   <v>       0.19642857       0.12500000       0.12500000 </v>
   <v>       0.23214286       0.12500000       0.12500000 </v>
   <v>       0.26785714       0.12500000       0.12500000 </v>
   <v>       0.30357143       0.12500000       0.12500000 </v>
   <v>       0.33928571       0.12500000       0.12500000 </v>
   <v>       0.37500000       0.12500000       0.12500000 </v>
   <v>       0.41071429       0.12500000       0.12500000 </v>
   <v>       0.44642857       0.12500000       0.12500000 </v>
   <v>       0.48214286       0.12500000       0.12500000 </v>
   <v>      -0.48214286       0.12500000       0.12500000 </v>
   <v>      -0.44642857       0.12500000       0.12500000 </v>
   <v>      -0.41071429       0.12500000       0.12500000 </v>
   <v>      -0.37500000       0.12500000       0.12500000 </v>
   <v>      -0.33928571       0.12500000       0.12500000 </v>
   <v>      -0.30357143       0.12500000       0.12500000 </v>
   <v>      -0.26785714       0.12500000       0.12500000 </v>
   <v>      -0.23214286       0.12500000       0.12500000 </v>
   <v>      -0.19642857       0.12500000       0.12500000 </v>
   <v>      -0.16071429       0.12500000       0.12500000 </v>
   <v>      -0.12500000       0.12500000       0.12500000 </v>
   <v>      -0.08928571       0.12500000       0.12500000 </v>
   <v>      -0.05357143       0.12500000       0.12500000 </v>
   <v>      -0.01785714       0.12500000       0.12500000 </v>
   <v>       0.01785714       0.16071429       0.12500000 </v>
   <v>       0.05357143       0.16071429       0.12500000 </v>
   <v>       0.08928571       0.16071429       0.12500000 </v>
   <v>       0.12500000       0.16071429       0.12500000 </v>
   <v>       0.16071429       0.16071429       0.12500000 </v>
   <v>       0.19642857       0.16071429       0.12500000 </v>
   <v>       0.23214286       0.16071429       0.12500000 </v>
   <v>       0.26785714       0.16071429       0.12500000 </v>
   <v>       0.30357143       0.16071429       0.12500000 </v>
   <v>       0.33928571       0.16071429       0.12500000 </v>
   <v>       0.37500000       0.16071429       0.12500000 </v>
   <v>       0.41071429       0.16071429       0.12500000 </v>
   <v>       0.44642857       0.16071429       0.12500000 </v>
   <v>       0.48214286       0.16071429       0.12500000 </v>
   <v>      -0.48214286       0.16071429       0.12500000 </v>
   <v>      -0.44642857       0.16071429       0.12500000 </v>
   <v>      -0.41071429       0.16071429       0.12500000 </v>
   <v>      -0.37500000       0.16071429       0.12500000 </v>
   <v>      -0.33928571       0.16071429       0.12500000 </v>
   <v>      -0.30357143       0.16071429       0.12500000 </v>
   <v>      -0.26785714       0.16071429       0.12500000 </v>
   <v>      -0.23214286       0.16071429       0.12500000 </v>
   <v>      -0.19642857       0.16071429       0.12500000 </v>
   <v>      -0.16071429       0.16071429       0.12500000 </v>
   <v>      -0.12500000       0.16071429       0.12500000 </v>
   <v>      -0.08928571       0.16071429       0.12500000 </v>
   <v>      -0.05357143       0.16071429       0.12500000 </v>
   <v>      -0.01785714       0.16071429       0.12500000 </v>
   <v>       0.01785714       0.19642857       0.12500000 </v>
   <v>       0.05357143       0.19642857       0.12500000 </v>
   <v>       0.08928571       0.19642857       0.12500000 </v>
   <v>       0.12500000       0.19642857       0.12500000 </v>
   <v>       0.16071429       0.19642857       0.12500000 </v>
   <v>       0.19642857       0.19642857       0.12500000 </v>
   <v>       0.23214286       0.19642857       0.12500000 </v>
   <v>       0.26785714       0.19642857       0.12500000 </v>
   <v>       0.30357143       0.19642857       0.12500000 </v>
   <v>       0.33928571       0.19642857       0.12500000 </v>
   <v>       0.37500000       0.19642857       0.12500000 </v>
   <v>       0.41071429       0.19642857       0.12500000 </v>
   <v>       0.44642857       0.19642857       0.12500000 </v>
   <v>       0.48214286       0.19642857       0.12500000 </v>
   <v>      -0.48214286       0.19642857       0.12500000 </v>
   <v>      -0.44642857       0.19642857       0.12500000 </v>
   <v>      -0.41071429       0.19642857       0.12500000 </v>
   <v>      -0.37500000       0.19642857       0.12500000 </v>
   <v>      -0.33928571       0.19642857       0.12500000 </v>
   <v>      -0.30357143       0.19642857       0.12500000 </v>
   <v>      -0.26785714       0.19642857       0.12500000 </v>
   <v>      -0.23214286       0.19642857       0.12500000 </v>
   <v>      -0.19642857       0.19642857       0.12500000 </v>
   <v>      -0.16071429       0.19642857       0.12500000 </v>
   <v>      -0.12500000       0.19642857       0.12500000 </v>
   <v>      -0.08928571       0.19642857       0.12500000 </v>
   <v>      -0.05357143       0.19642857       0.12500000 </v>
   <v>      -0.01785714       0.19642857       0.12500000 </v>
   <v>       0.01785714       0.23214286       0.12500000 </v>
   <v>       0.05357143       0.23214286       0.12500000 </v>
   <v>       0.08928571       0.23214286       0.12500000 </v>
   <v>       0.12500000       0.23214286       0.12500000 </v>
   <v>       0.16071429       0.23214286       0.12500000 </v>
   <v>       0.19642857       0.23214286       0.12500000 </v>
   <v>       0.23214286       0.23214286       0.12500000 </v>
   <v>       0.26785714       0.23214286       0.12500000 </v>
   <v>       0.30357143       0.23214286       0.12500000 </v>
   <v>       0.33928571       0.23214286       0.12500000 </v>
   <v>       0.37500000       0.23214286       0.12500000 </v>
   <v>       0.41071429       0.23214286       0.12500000 </v>
   <v>       0.44642857       0.23214286       0.12500000 </v>
   <v>       0.48214286       0.23214286       0.12500000 </v>
   <v>      -0.48214286       0.23214286       0.12500000 </v>
   <v>      -0.44642857       0.23214286       0.12500000 </v>
   <v>      -0.41071429       0.23214286       0.12500000 </v>
   <v>      -0.37500000       0.23214286       0.12500000 </v>
   <v>      -0.33928571       0.23214286       0.12500000 </v>
   <v>      -0.30357143       0.23214286       0.12500000 </v>
   <v>      -0.26785714       0.23214286       0.12500000 </v>
   <v>      -0.23214286       0.23214286       0.12500000 </v>
   <v>      -0.19642857       0.23214286       0.12500000 </v>
   <v>      -0.16071429       0.23214286       0.12500000 </v>
   <v>      -0.12500000       0.23214286       0.12500000 </v>
   <v>      -0.08928571       0.23214286       0.12500000 </v>
   <v>      -0.05357143       0.23214286       0.12500000 </v>
   <v>      -0.01785714       0.23214286       0.12500000 </v>
   <v>       0.01785714       0.26785714       0.12500000 </v>
   <v>       0.05357143       0.26785714       0.12500000 </v>
   <v>       0.08928571       0.26785714       0.12500000 </v>
   <v>       0.12500000       0.26785714       0.12500000 </v>
   <v>       0.16071429       0.26785714       0.12500000 </v>
   <v>       0.19642857       0.26785714       0.12500000 </v>
   <v>       0.23214286       0.26785714       0.12500000 </v>
   <v>       0.26785714       0.26785714       0.12500000 </v>
   <v>       0.30357143       0.26785714       0.12500000 </v>
   <v>       0.33928571       0.26785714       0.12500000 </v>
   <v>       0.37500000       0.26785714       0.12500000 </v>
   <v>       0.41071429       0.26785714       0.12500000 </v>
   <v>       0.44642857       0.26785714       0.12500000 </v>
   <v>       0.48214286       0.26785714       0.12500000 </v>
   <v>      -0.48214286       0.26785714       0.12500000 </v>
   <v>      -0.44642857       0.26785714       0.12500000 </v>
   <v>      -0.41071429       0.26785714       0.12500000 </v>
   <v>      -0.37500000       0.26785714       0.12500000 </v>
   <v>      -0.33928571       0.26785714       0.12500000 </v>
   <v>      -0.30357143       0.26785714       0.12500000 </v>
   <v>      -0.26785714       0.26785714       0.12500000 </v>
   <v>      -0.23214286       0.26785714       0.12500000 </v>
   <v>      -0.19642857       0.26785714       0.12500000 </v>
   <v>      -0.16071429       0.26785714       0.12500000 </v>
   <v>      -0.12500000       0.26785714       0.12500000 </v>
   <v>      -0.08928571       0.26785714       0.12500000 </v>
   <v>      -0.05357143       0.26785714       0.12500000 </v>
   <v>      -0.01785714       0.26785714       0.12500000 </v>
   <v>       0.01785714       0.30357143       0.12500000 </v>
   <v>       0.05357143       0.30357143       0.12500000 </v>
   <v>       0.08928571       0.30357143       0.12500000 </v>
   <v>       0.12500000       0.30357143       0.12500000 </v>
   <v>       0.16071429       0.30357143       0.12500000 </v>
   <v>       0.19642857       0.30357143       0.12500000 </v>
   <v>       0.23214286       0.30357143       0.12500000 </v>
   <v>       0.26785714       0.30357143       0.12500000 </v>
   <v>       0.30357143       0.30357143       0.12500000 </v>
   <v>       0.33928571       0.30357143       0.12500000 </v>
   <v>       0.37500000       0.30357143       0.12500000 </v>
   <v>       0.41071429       0.30357143       0.12500000 </v>
   <v>       0.44642857       0.30357143       0.12500000 </v>
   <v>       0.48214286       0.30357143       0.12500000 </v>
   <v>      -0.48214286       0.30357143       0.12500000 </v>
   <v>      -0.44642857       0.30357143       0.12500000 </v>
   <v>      -0.41071429       0.30357143       0.12500000 </v>
   <v>      -0.37500000       0.30357143       0.12500000 </v>
   <v>      -0.33928571       0.30357143       0.12500000 </v>
   <v>      -0.30357143       0.30357143       0.12500000 </v>
   <v>      -0.26785714       0.30357143       0.12500000 </v>
   <v>      -0.23214286       0.30357143       0.12500000 </v>
   <v>      -0.19642857       0.30357143       0.12500000 </v>
   <v>      -0.16071429       0.30357143       0.12500000 </v>
   <v>      -0.12500000       0.30357143       0.12500000 </v>
   <v>      -0.08928571       0.30357143       0.12500000 </v>
   <v>      -0.05357143       0.30357143       0.12500000 </v>
   <v>      -0.01785714       0.30357143       0.12500000 </v>
   <v>       0.01785714       0.33928571       0.12500000 </v>
   <v>       0.05357143       0.33928571       0.12500000 </v>
   <v>       0.08928571       0.33928571       0.12500000 </v>
   <v>       0.12500000       0.33928571       0.12500000 </v>
   <v>       0.16071429       0.33928571       0.12500000 </v>
   <v>       0.19642857       0.33928571       0.12500000 </v>
   <v>       0.23214286       0.33928571       0.12500000 </v>
   <v>       0.26785714       0.33928571       0.12500000 </v>
   <v>       0.30357143       0.33928571       0.12500000 </v>
   <v>       0.33928571       0.33928571       0.12500000 </v>
   <v>       0.37500000       0.33928571       0.12500000 </v>
   <v>       0.41071429       0.33928571       0.12500000 </v>
   <v>       0.44642857       0.33928571       0.12500000 </v>
   <v>       0.48214286       0.33928571       0.12500000 </v>
   <v>      -0.48214286       0.33928571       0.12500000 </v>
   <v>      -0.44642857       0.33928571       0.12500000 </v>
   <v>      -0.41071429       0.33928571       0.12500000 </v>
   <v>      -0.37500000       0.33928571       0.12500000 </v>
   <v>      -0.33928571       0.33928571       0.12500000 </v>
   <v>      -0.30357143       0.33928571       0.12500000 </v>
   <v>      -0.26785714       0.33928571       0.12500000 </v>
   <v>      -0.23214286       0.33928571       0.12500000 </v>
   <v>      -0.19642857       0.33928571       0.12500000 </v>
   <v>      -0.16071429       0.33928571       0.12500000 </v>
   <v>      -0.12500000       0.33928571       0.12500000 </v>
   <v>      -0.08928571       0.33928571       0.12500000 </v>
   <v>      -0.05357143       0.33928571       0.12500000 </v>
   <v>      -0.01785714       0.33928571       0.12500000 </v>
   <v>       0.01785714       0.37500000       0.12500000 </v>
   <v>       0.05357143       0.37500000       0.12500000 </v>
   <v>       0.08928571       0.37500000       0.12500000 </v>
   <v>       0.12500000       0.37500000       0.12500000 </v>
   <v>       0.16071429       0.37500000       0.12500000 </v>
   <v>       0.19642857       0.37500000       0.12500000 </v>
   <v>       0.23214286       0.37500000       0.12500000 </v>
   <v>       0.26785714       0.37500000       0.12500000 </v>
   <v>       0.30357143       0.37500000       0.12500000 </v>
   <v>       0.33928571       0.37500000       0.12500000 </v>
   <v>       0.37500000       0.37500000       0.12500000 </v>
   <v>       0.41071429       0.37500000       0.12500000 </v>
   <v>       0.44642857       0.37500000       0.12500000 </v>
   <v>       0.48214286       0.37500000       0.12500000 </v>
   <v>      -0.48214286       0.37500000       0.12500000 </v>
   <v>      -0.44642857       0.37500000       0.12500000 </v>
   <v>      -0.41071429       0.37500000       0.12500000 </v>
   <v>      -0.37500000       0.37500000       0.12500000 </v>
   <v>      -0.33928571       0.37500000       0.12500000 </v>
   <v>      -0.30357143       0.37500000       0.12500000 </v>
   <v>      -0.26785714       0.37500000       0.12500000 </v>
   <v>      -0.23214286       0.37500000       0.12500000 </v>
   <v>      -0.19642857       0.37500000       0.12500000 </v>
   <v>      -0.16071429       0.37500000       0.12500000 </v>
   <v>      -0.12500000       0.37500000       0.12500000 </v>
   <v>      -0.08928571       0.37500000       0.12500000 </v>
   <v>      -0.05357143       0.37500000       0.12500000 </v>
   <v>      -0.01785714       0.37500000       0.12500000 </v>
   <v>       0.01785714       0.41071429       0.12500000 </v>
   <v>       0.05357143       0.41071429       0.12500000 </v>
   <v>       0.08928571       0.41071429       0.12500000 </v>
   <v>       0.12500000       0.41071429       0.12500000 </v>
   <v>       0.16071429       0.41071429       0.12500000 </v>
   <v>       0.19642857       0.41071429       0.12500000 </v>
   <v>       0.23214286       0.41071429       0.12500000 </v>
   <v>       0.26785714       0.41071429       0.12500000 </v>
   <v>       0.30357143       0.41071429       0.12500000 </v>
   <v>       0.33928571       0.41071429       0.12500000 </v>
   <v>       0.37500000       0.41071429       0.12500000 </v>
   <v>       0.41071429       0.41071429       0.12500000 </v>
   <v>       0.44642857       0.41071429       0.12500000 </v>
   <v>       0.48214286       0.41071429       0.12500000 </v>
   <v>      -0.48214286       0.41071429       0.12500000 </v>
   <v>      -0.44642857       0.41071429       0.12500000 </v>
   <v>      -0.41071429       0.41071429       0.12500000 </v>
   <v>      -0.37500000       0.41071429       0.12500000 </v>
   <v>      -0.33928571       0.41071429       0.12500000 </v>
   <v>      -0.30357143       0.41071429       0.12500000 </v>
   <v>      -0.26785714       0.41071429       0.12500000 </v>
   <v>      -0.23214286       0.41071429       0.12500000 </v>
   <v>      -0.19642857       0.41071429       0.12500000 </v>
   <v>      -0.16071429       0.41071429       0.12500000 </v>
   <v>      -0.12500000       0.41071429       0.12500000 </v>
   <v>      -0.08928571       0.41071429       0.12500000 </v>
   <v>      -0.05357143       0.41071429       0.12500000 </v>
   <v>      -0.01785714       0.41071429       0.12500000 </v>
   <v>       0.01785714       0.44642857       0.12500000 </v>
   <v>       0.05357143       0.44642857       0.12500000 </v>
   <v>       0.08928571       0.44642857       0.12500000 </v>
   <v>       0.12500000       0.44642857       0.12500000 </v>
   <v>       0.16071429       0.44642857       0.12500000 </v>
   <v>       0.19642857       0.44642857       0.12500000 </v>
   <v>       0.23214286       0.44642857       0.12500000 </v>
   <v>       0.26785714       0.44642857       0.12500000 </v>
   <v>       0.30357143       0.44642857       0.12500000 </v>
   <v>       0.33928571       0.44642857       0.12500000 </v>
   <v>       0.37500000       0.44642857       0.12500000 </v>
   <v>       0.41071429       0.44642857       0.12500000 </v>
   <v>       0.44642857       0.44642857       0.12500000 </v>
   <v>       0.48214286       0.44642857       0.12500000 </v>
   <v>      -0.48214286       0.44642857       0.12500000 </v>
   <v>      -0.44642857       0.44642857       0.12500000 </v>
   <v>      -0.41071429       0.44642857       0.12500000 </v>
   <v>      -0.37500000       0.44642857       0.12500000 </v>
   <v>      -0.33928571       0.44642857       0.12500000 </v>
   <v>      -0.30357143       0.44642857       0.12500000 </v>
   <v>      -0.26785714       0.44642857       0.12500000 </v>
   <v>      -0.23214286       0.44642857       0.12500000 </v>
   <v>      -0.19642857       0.44642857       0.12500000 </v>
   <v>      -0.16071429       0.44642857       0.12500000 </v>
   <v>      -0.12500000       0.44642857       0.12500000 </v>
   <v>      -0.08928571       0.44642857       0.12500000 </v>
   <v>      -0.05357143       0.44642857       0.12500000 </v>
   <v>      -0.01785714       0.44642857       0.12500000 </v>
   <v>       0.01785714       0.48214286       0.12500000 </v>
   <v>       0.05357143       0.48214286       0.12500000 </v>
   <v>       0.08928571       0.48214286       0.12500000 </v>
   <v>       0.12500000       0.48214286       0.12500000 </v>
   <v>       0.16071429       0.48214286       0.12500000 </v>
   <v>       0.19642857       0.48214286       0.12500000 </v>
   <v>       0.23214286       0.48214286       0.12500000 </v>
   <v>       0.26785714       0.48214286       0.12500000 </v>
   <v>       0.30357143       0.48214286       0.12500000 </v>
   <v>       0.33928571       0.48214286       0.12500000 </v>
   <v>       0.37500000       0.48214286       0.12500000 </v>
   <v>       0.41071429       0.48214286       0.12500000 </v>
   <v>       0.44642857       0.48214286       0.12500000 </v>
   <v>       0.48214286       0.48214286       0.12500000 </v>
   <v>      -0.48214286       0.48214286       0.12500000 </v>
   <v>      -0.44642857       0.48214286       0.12500000 </v>
   <v>      -0.41071429       0.48214286       0.12500000 </v>
   <v>      -0.37500000       0.48214286       0.12500000 </v>
   <v>      -0.33928571       0.48214286       0.12500000 </v>
   <v>      -0.30357143       0.48214286       0.12500000 </v>
   <v>      -0.26785714       0.48214286       0.12500000 </v>
   <v>      -0.23214286       0.48214286       0.12500000 </v>
   <v>      -0.19642857       0.48214286       0.12500000 </v>
   <v>      -0.16071429       0.48214286       0.12500000 </v>
   <v>      -0.12500000       0.48214286       0.12500000 </v>
   <v>      -0.08928571       0.48214286       0.12500000 </v>
   <v>      -0.05357143       0.48214286       0.12500000 </v>
   <v>      -0.01785714       0.48214286       0.12500000 </v>
   <v>       0.01785714       0.01785714       0.37500000 </v>
   <v>       0.05357143       0.01785714       0.37500000 </v>
   <v>       0.08928571       0.01785714       0.37500000 </v>
   <v>       0.12500000       0.01785714       0.37500000 </v>
   <v>       0.16071429       0.01785714       0.37500000 </v>
   <v>       0.19642857       0.01785714       0.37500000 </v>
   <v>       0.23214286       0.01785714       0.37500000 </v>
   <v>       0.26785714       0.01785714       0.37500000 </v>
   <v>       0.30357143       0.01785714       0.37500000 </v>
   <v>       0.33928571       0.01785714       0.37500000 </v>
   <v>       0.37500000       0.01785714       0.37500000 </v>
   <v>       0.41071429       0.01785714       0.37500000 </v>
   <v>       0.44642857       0.01785714       0.37500000 </v>
   <v>       0.48214286       0.01785714       0.37500000 </v>
   <v>      -0.48214286       0.01785714       0.37500000 </v>
   <v>      -0.44642857       0.01785714       0.37500000 </v>
   <v>      -0.41071429       0.01785714       0.37500000 </v>
   <v>      -0.37500000       0.01785714       0.37500000 </v>
   <v>      -0.33928571       0.01785714       0.37500000 </v>
   <v>      -0.30357143       0.01785714       0.37500000 </v>
   <v>      -0.26785714       0.01785714       0.37500000 </v>
   <v>      -0.23214286       0.01785714       0.37500000 </v>
   <v>      -0.19642857       0.01785714       0.37500000 </v>
   <v>      -0.16071429       0.01785714       0.37500000 </v>
   <v>      -0.12500000       0.01785714       0.37500000 </v>
   <v>      -0.08928571       0.01785714       0.37500000 </v>
   <v>      -0.05357143       0.01785714       0.37500000 </v>
   <v>      -0.01785714       0.01785714       0.37500000 </v>
   <v>       0.01785714       0.05357143       0.37500000 </v>
   <v>       0.05357143       0.05357143       0.37500000 </v>
   <v>       0.08928571       0.05357143       0.37500000 </v>
   <v>       0.12500000       0.05357143       0.37500000 </v>
   <v>       0.16071429       0.05357143       0.37500000 </v>
   <v>       0.19642857       0.05357143       0.37500000 </v>
   <v>       0.23214286       0.05357143       0.37500000 </v>
   <v>       0.26785714       0.05357143       0.37500000 </v>
   <v>       0.30357143       0.05357143       0.37500000 </v>
   <v>       0.33928571       0.05357143       0.37500000 </v>
   <v>       0.37500000       0.05357143       0.37500000 </v>
   <v>       0.41071429       0.05357143       0.37500000 </v>
   <v>       0.44642857       0.05357143       0.37500000 </v>
   <v>       0.48214286       0.05357143       0.37500000 </v>
   <v>      -0.48214286       0.05357143       0.37500000 </v>
   <v>      -0.44642857       0.05357143       0.37500000 </v>
   <v>      -0.41071429       0.05357143       0.37500000 </v>
   <v>      -0.37500000       0.05357143       0.37500000 </v>
   <v>      -0.33928571       0.05357143       0.37500000 </v>
   <v>      -0.30357143       0.05357143       0.37500000 </v>
   <v>      -0.26785714       0.05357143       0.37500000 </v>
   <v>      -0.23214286       0.05357143       0.37500000 </v>
   <v>      -0.19642857       0.05357143       0.37500000 </v>
   <v>      -0.16071429       0.05357143       0.37500000 </v>
   <v>      -0.12500000       0.05357143       0.37500000 </v>
   <v>      -0.08928571       0.05357143       0.37500000 </v>
   <v>      -0.05357143       0.05357143       0.37500000 </v>
   <v>      -0.01785714       0.05357143       0.37500000 </v>
   <v>       0.01785714       0.08928571       0.37500000 </v>
   <v>       0.05357143       0.08928571       0.37500000 </v>
   <v>       0.08928571       0.08928571       0.37500000 </v>
   <v>       0.12500000       0.08928571       0.37500000 </v>
   <v>       0.16071429       0.08928571       0.37500000 </v>
   <v>       0.19642857       0.08928571       0.37500000 </v>
   <v>       0.23214286       0.08928571       0.37500000 </v>
   <v>       0.26785714       0.08928571       0.37500000 </v>
   <v>       0.30357143       0.08928571       0.37500000 </v>
   <v>       0.33928571       0.08928571       0.37500000 </v>
   <v>       0.37500000       0.08928571       0.37500000 </v>
   <v>       0.41071429       0.08928571       0.37500000 </v>
   <v>       0.44642857       0.08928571       0.37500000 </v>
   <v>       0.48214286       0.08928571       0.37500000 </v>
   <v>      -0.48214286       0.08928571       0.37500000 </v>
   <v>      -0.44642857       0.08928571       0.37500000 </v>
   <v>      -0.41071429       0.08928571       0.37500000 </v>
   <v>      -0.37500000       0.08928571       0.37500000 </v>
   <v>      -0.33928571       0.08928571       0.37500000 </v>
   <v>      -0.30357143       0.08928571       0.37500000 </v>
   <v>      -0.26785714       0.08928571       0.37500000 </v>
   <v>      -0.23214286       0.08928571       0.37500000 </v>
   <v>      -0.19642857       0.08928571       0.37500000 </v>
   <v>      -0.16071429       0.08928571       0.37500000 </v>
   <v>      -0.12500000       0.08928571       0.37500000 </v>
   <v>      -0.08928571       0.08928571       0.37500000 </v>
   <v>      -0.05357143       0.08928571       0.37500000 </v>
   <v>      -0.01785714       0.08928571       0.37500000 </v>
   <v>       0.01785714       0.12500000       0.37500000 </v>
   <v>       0.05357143       0.12500000       0.37500000 </v>
   <v>       0.08928571       0.12500000       0.37500000 </v>
   <v>       0.12500000       0.12500000       0.37500000 </v>
   <v>       0.16071429       0.12500000       0.37500000 </v>
   <v>       0.19642857       0.12500000       0.37500000 </v>
   <v>       0.23214286       0.12500000       0.37500000 </v>
   <v>       0.26785714       0.12500000       0.37500000 </v>
   <v>       0.30357143       0.12500000       0.37500000 </v>
   <v>       0.33928571       0.12500000       0.37500000 </v>
   <v>       0.37500000       0.12500000       0.37500000 </v>
   <v>       0.41071429       0.12500000       0.37500000 </v>
   <v>       0.44642857       0.12500000       0.37500000 </v>
   <v>       0.48214286       0.12500000       0.37500000 </v>
   <v>      -0.48214286       0.12500000       0.37500000 </v>
   <v>      -0.44642857       0.12500000       0.37500000 </v>
   <v>      -0.41071429       0.12500000       0.37500000 </v>
   <v>      -0.37500000       0.12500000       0.37500000 </v>
   <v>      -0.33928571       0.12500000       0.37500000 </v>
   <v>      -0.30357143       0.12500000       0.37500000 </v>
   <v>      -0.26785714       0.12500000       0.37500000 </v>
   <v>      -0.23214286       0.12500000       0.37500000 </v>
   <v>      -0.19642857       0.12500000       0.37500000 </v>
   <v>      -0.16071429       0.12500000       0.37500000 </v>
   <v>      -0.12500000       0.12500000       0.37500000 </v>
   <v>      -0.08928571       0.12500000       0.37500000 </v>
   <v>      -0.05357143       0.12500000       0.37500000 </v>
   <v>      -0.01785714       0.12500000       0.37500000 </v>
   <v>       0.01785714       0.16071429       0.37500000 </v>
   <v>       0.05357143       0.16071429       0.37500000 </v>
   <v>       0.08928571       0.16071429       0.37500000 </v>
   <v>       0.12500000       0.16071429       0.37500000 </v>
   <v>       0.16071429       0.16071429       0.37500000 </v>
   <v>       0.19642857       0.16071429       0.37500000 </v>
   <v>       0.23214286       0.16071429       0.37500000 </v>
   <v>       0.26785714       0.16071429       0.37500000 </v>
   <v>       0.30357143       0.16071429       0.37500000 </v>
   <v>       0.33928571       0.16071429       0.37500000 </v>
   <v>       0.37500000       0.16071429       0.37500000 </v>
   <v>       0.41071429       0.16071429       0.37500000 </v>
   <v>       0.44642857       0.16071429       0.37500000 </v>
   <v>       0.48214286       0.16071429       0.37500000 </v>
   <v>      -0.48214286       0.16071429       0.37500000 </v>
   <v>      -0.44642857       0.16071429       0.37500000 </v>
   <v>      -0.41071429       0.16071429       0.37500000 </v>
   <v>      -0.37500000       0.16071429       0.37500000 </v>
   <v>      -0.33928571       0.16071429       0.37500000 </v>
   <v>      -0.30357143       0.16071429       0.37500000 </v>
   <v>      -0.26785714       0.16071429       0.37500000 </v>
   <v>      -0.23214286       0.16071429       0.37500000 </v>
   <v>      -0.19642857       0.16071429       0.37500000 </v>
   <v>      -0.16071429       0.16071429       0.37500000 </v>
   <v>      -0.12500000       0.16071429       0.37500000 </v>
   <v>      -0.08928571       0.16071429       0.37500000 </v>
   <v>      -0.05357143       0.16071429       0.37500000 </v>
   <v>      -0.01785714       0.16071429       0.37500000 </v>
   <v>       0.01785714       0.19642857       0.37500000 </v>
   <v>       0.05357143       0.19642857       0.37500000 </v>
   <v>       0.08928571       0.19642857       0.37500000 </v>
   <v>       0.12500000       0.19642857       0.37500000 </v>
   <v>       0.16071429       0.19642857       0.37500000 </v>
   <v>       0.19642857       0.19642857       0.37500000 </v>
   <v>       0.23214286       0.19642857       0.37500000 </v>
   <v>       0.26785714       0.19642857       0.37500000 </v>
   <v>       0.30357143       0.19642857       0.37500000 </v>
   <v>       0.33928571       0.19642857       0.37500000 </v>
   <v>       0.37500000       0.19642857       0.37500000 </v>
   <v>       0.41071429       0.19642857       0.37500000 </v>
   <v>       0.44642857       0.19642857       0.37500000 </v>
   <v>       0.48214286       0.19642857       0.37500000 </v>
   <v>      -0.48214286       0.19642857       0.37500000 </v>
   <v>      -0.44642857       0.19642857       0.37500000 </v>
   <v>      -0.41071429       0.19642857       0.37500000 </v>
   <v>      -0.37500000       0.19642857       0.37500000 </v>
   <v>      -0.33928571       0.19642857       0.37500000 </v>
   <v>      -0.30357143       0.19642857       0.37500000 </v>
   <v>      -0.26785714       0.19642857       0.37500000 </v>
   <v>      -0.23214286       0.19642857       0.37500000 </v>
   <v>      -0.19642857       0.19642857       0.37500000 </v>
   <v>      -0.16071429       0.19642857       0.37500000 </v>
   <v>      -0.12500000       0.19642857       0.37500000 </v>
   <v>      -0.08928571       0.19642857       0.37500000 </v>
   <v>      -0.05357143       0.19642857       0.37500000 </v>
   <v>      -0.01785714       0.19642857       0.37500000 </v>
   <v>       0.01785714       0.23214286       0.37500000 </v>
   <v>       0.05357143       0.23214286       0.37500000 </v>
   <v>       0.08928571       0.23214286       0.37500000 </v>
   <v>       0.12500000       0.23214286       0.37500000 </v>
   <v>       0.16071429       0.23214286       0.37500000 </v>
   <v>       0.19642857       0.23214286       0.37500000 </v>
   <v>       0.23214286       0.23214286       0.37500000 </v>
   <v>       0.26785714       0.23214286       0.37500000 </v>
   <v>       0.30357143       0.23214286       0.37500000 </v>
   <v>       0.33928571       0.23214286       0.37500000 </v>
   <v>       0.37500000       0.23214286       0.37500000 </v>
   <v>       0.41071429       0.23214286       0.37500000 </v>
   <v>       0.44642857       0.23214286       0.37500000 </v>
   <v>       0.48214286       0.23214286       0.37500000 </v>
   <v>      -0.48214286       0.23214286       0.37500000 </v>
   <v>      -0.44642857       0.23214286       0.37500000 </v>
   <v>      -0.41071429       0.23214286       0.37500000 </v>
   <v>      -0.37500000       0.23214286       0.37500000 </v>
   <v>      -0.33928571       0.23214286       0.37500000 </v>
   <v>      -0.30357143       0.23214286       0.37500000 </v>
   <v>      -0.26785714       0.23214286       0.37500000 </v>
   <v>      -0.23214286       0.23214286       0.37500000 </v>
   <v>      -0.19642857       0.23214286       0.37500000 </v>
   <v>      -0.16071429       0.23214286       0.37500000 </v>
   <v>      -0.12500000       0.23214286       0.37500000 </v>
   <v>      -0.08928571       0.23214286       0.37500000 </v>
   <v>      -0.05357143       0.23214286       0.37500000 </v>
   <v>      -0.01785714       0.23214286       0.37500000 </v>
   <v>       0.01785714       0.26785714       0.37500000 </v>
   <v>       0.05357143       0.26785714       0.37500000 </v>
   <v>       0.08928571       0.26785714       0.37500000 </v>
   <v>       0.12500000       0.26785714       0.37500000 </v>
   <v>       0.16071429       0.26785714       0.37500000 </v>
   <v>       0.19642857       0.26785714       0.37500000 </v>
   <v>       0.23214286       0.26785714       0.37500000 </v>
   <v>       0.26785714       0.26785714       0.37500000 </v>
   <v>       0.30357143       0.26785714       0.37500000 </v>
   <v>       0.33928571       0.26785714       0.37500000 </v>
   <v>       0.37500000       0.26785714       0.37500000 </v>
   <v>       0.41071429       0.26785714       0.37500000 </v>
   <v>       0.44642857       0.26785714       0.37500000 </v>
   <v>       0.48214286       0.26785714       0.37500000 </v>
   <v>      -0.48214286       0.26785714       0.37500000 </v>
   <v>      -0.44642857       0.26785714       0.37500000 </v>
   <v>      -0.41071429       0.26785714       0.37500000 </v>
   <v>      -0.37500000       0.26785714       0.37500000 </v>
   <v>      -0.33928571       0.26785714       0.37500000 </v>
   <v>      -0.30357143       0.26785714       0.37500000 </v>
   <v>      -0.26785714       0.26785714       0.37500000 </v>
   <v>      -0.23214286       0.26785714       0.37500000 </v>
   <v>      -0.19642857       0.26785714       0.37500000 </v>
   <v>      -0.16071429       0.26785714       0.37500000 </v>
   <v>      -0.12500000       0.26785714       0.37500000 </v>
   <v>      -0.08928571       0.26785714       0.37500000 </v>
   <v>      -0.05357143       0.26785714       0.37500000 </v>
   <v>      -0.01785714       0.26785714       0.37500000 </v>
   <v>       0.01785714       0.30357143       0.37500000 </v>
   <v>       0.05357143       0.30357143       0.37500000 </v>
   <v>       0.08928571       0.30357143       0.37500000 </v>
   <v>       0.12500000       0.30357143       0.37500000 </v>
   <v>       0.16071429       0.30357143       0.37500000 </v>
   <v>       0.19642857       0.30357143       0.37500000 </v>
   <v>       0.23214286       0.30357143       0.37500000 </v>
   <v>       0.26785714       0.30357143       0.37500000 </v>
   <v>       0.30357143       0.30357143       0.37500000 </v>
   <v>       0.33928571       0.30357143       0.37500000 </v>
   <v>       0.37500000       0.30357143       0.37500000 </v>
   <v>       0.41071429       0.30357143       0.37500000 </v>
   <v>       0.44642857       0.30357143       0.37500000 </v>
   <v>       0.48214286       0.30357143       0.37500000 </v>
   <v>      -0.48214286       0.30357143       0.37500000 </v>
   <v>      -0.44642857       0.30357143       0.37500000 </v>
   <v>      -0.41071429       0.30357143       0.37500000 </v>
   <v>      -0.37500000       0.30357143       0.37500000 </v>
   <v>      -0.33928571       0.30357143       0.37500000 </v>
   <v>      -0.30357143       0.30357143       0.37500000 </v>
   <v>      -0.26785714       0.30357143       0.37500000 </v>
   <v>      -0.23214286       0.30357143       0.37500000 </v>
   <v>      -0.19642857       0.30357143       0.37500000 </v>
   <v>      -0.16071429       0.30357143       0.37500000 </v>
   <v>      -0.12500000       0.30357143       0.37500000 </v>
   <v>      -0.08928571       0.30357143       0.37500000 </v>
   <v>      -0.05357143       0.30357143       0.37500000 </v>
   <v>      -0.01785714       0.30357143       0.37500000 </v>
   <v>       0.01785714       0.33928571       0.37500000 </v>
   <v>       0.05357143       0.33928571       0.37500000 </v>
   <v>       0.08928571       0.33928571       0.37500000 </v>
   <v>       0.12500000       0.33928571       0.37500000 </v>
   <v>       0.16071429       0.33928571       0.37500000 </v>
   <v>       0.19642857       0.33928571       0.37500000 </v>
   <v>       0.23214286       0.33928571       0.37500000 </v>
   <v>       0.26785714       0.33928571       0.37500000 </v>
   <v>       0.30357143       0.33928571       0.37500000 </v>
   <v>       0.33928571       0.33928571       0.37500000 </v>
   <v>       0.37500000       0.33928571       0.37500000 </v>
   <v>       0.41071429       0.33928571       0.37500000 </v>
   <v>       0.44642857       0.33928571       0.37500000 </v>
   <v>       0.48214286       0.33928571       0.37500000 </v>
   <v>      -0.48214286       0.33928571       0.37500000 </v>
   <v>      -0.44642857       0.33928571       0.37500000 </v>
   <v>      -0.41071429       0.33928571       0.37500000 </v>
   <v>      -0.37500000       0.33928571       0.37500000 </v>
   <v>      -0.33928571       0.33928571       0.37500000 </v>
   <v>      -0.30357143       0.33928571       0.37500000 </v>
   <v>      -0.26785714       0.33928571       0.37500000 </v>
   <v>      -0.23214286       0.33928571       0.37500000 </v>
   <v>      -0.19642857       0.33928571       0.37500000 </v>
   <v>      -0.16071429       0.33928571       0.37500000 </v>
   <v>      -0.12500000       0.33928571       0.37500000 </v>
   <v>      -0.08928571       0.33928571       0.37500000 </v>
   <v>      -0.05357143       0.33928571       0.37500000 </v>
   <v>      -0.01785714       0.33928571       0.37500000 </v>
   <v>       0.01785714       0.37500000       0.37500000 </v>
   <v>       0.05357143       0.37500000       0.37500000 </v>
   <v>       0.08928571       0.37500000       0.37500000 </v>
   <v>       0.12500000       0.37500000       0.37500000 </v>
   <v>       0.16071429       0.37500000       0.37500000 </v>
   <v>       0.19642857       0.37500000       0.37500000 </v>
   <v>       0.23214286       0.37500000       0.37500000 </v>
   <v>       0.26785714       0.37500000       0.37500000 </v>
   <v>       0.30357143       0.37500000       0.37500000 </v>
   <v>       0.33928571       0.37500000       0.37500000 </v>
   <v>       0.37500000       0.37500000       0.37500000 </v>
   <v>       0.41071429       0.37500000       0.37500000 </v>
   <v>       0.44642857       0.37500000       0.37500000 </v>
   <v>       0.48214286       0.37500000       0.37500000 </v>
   <v>      -0.48214286       0.37500000       0.37500000 </v>
   <v>      -0.44642857       0.37500000       0.37500000 </v>
   <v>      -0.41071429       0.37500000       0.37500000 </v>
   <v>      -0.37500000       0.37500000       0.37500000 </v>
   <v>      -0.33928571       0.37500000       0.37500000 </v>
   <v>      -0.30357143       0.37500000       0.37500000 </v>
   <v>      -0.26785714       0.37500000       0.37500000 </v>
   <v>      -0.23214286       0.37500000       0.37500000 </v>
   <v>      -0.19642857       0.37500000       0.37500000 </v>
   <v>      -0.16071429       0.37500000       0.37500000 </v>
   <v>      -0.12500000       0.37500000       0.37500000 </v>
   <v>      -0.08928571       0.37500000       0.37500000 </v>
   <v>      -0.05357143       0.37500000       0.37500000 </v>
   <v>      -0.01785714       0.37500000       0.37500000 </v>
   <v>       0.01785714       0.41071429       0.37500000 </v>
   <v>       0.05357143       0.41071429       0.37500000 </v>
   <v>       0.08928571       0.41071429       0.37500000 </v>
   <v>       0.12500000       0.41071429       0.37500000 </v>
   <v>       0.16071429       0.41071429       0.37500000 </v>
   <v>       0.19642857       0.41071429       0.37500000 </v>
   <v>       0.23214286       0.41071429       0.37500000 </v>
   <v>       0.26785714       0.41071429       0.37500000 </v>
   <v>       0.30357143       0.41071429       0.37500000 </v>
   <v>       0.33928571       0.41071429       0.37500000 </v>
   <v>       0.37500000       0.41071429       0.37500000 </v>
   <v>       0.41071429       0.41071429       0.37500000 </v>
   <v>       0.44642857       0.41071429       0.37500000 </v>
   <v>       0.48214286       0.41071429       0.37500000 </v>
   <v>      -0.48214286       0.41071429       0.37500000 </v>
   <v>      -0.44642857       0.41071429       0.37500000 </v>
   <v>      -0.41071429       0.41071429       0.37500000 </v>
   <v>      -0.37500000       0.41071429       0.37500000 </v>
   <v>      -0.33928571       0.41071429       0.37500000 </v>
   <v>      -0.30357143       0.41071429       0.37500000 </v>
   <v>      -0.26785714       0.41071429       0.37500000 </v>
   <v>      -0.23214286       0.41071429       0.37500000 </v>
   <v>      -0.19642857       0.41071429       0.37500000 </v>
   <v>      -0.16071429       0.41071429       0.37500000 </v>
   <v>      -0.12500000       0.41071429       0.37500000 </v>
   <v>      -0.08928571       0.41071429       0.37500000 </v>
   <v>      -0.05357143       0.41071429       0.37500000 </v>
   <v>      -0.01785714       0.41071429       0.37500000 </v>
   <v>       0.01785714       0.44642857       0.37500000 </v>
   <v>       0.05357143       0.44642857       0.37500000 </v>
   <v>       0.08928571       0.44642857       0.37500000 </v>
   <v>       0.12500000       0.44642857       0.37500000 </v>
   <v>       0.16071429       0.44642857       0.37500000 </v>
   <v>       0.19642857       0.44642857       0.37500000 </v>
   <v>       0.23214286       0.44642857       0.37500000 </v>
   <v>       0.26785714       0.44642857       0.37500000 </v>
   <v>       0.30357143       0.44642857       0.37500000 </v>
   <v>       0.33928571       0.44642857       0.37500000 </v>
   <v>       0.37500000       0.44642857       0.37500000 </v>
   <v>       0.41071429       0.44642857       0.37500000 </v>
   <v>       0.44642857       0.44642857       0.37500000 </v>
   <v>       0.48214286       0.44642857       0.37500000 </v>
   <v>      -0.48214286       0.44642857       0.37500000 </v>
   <v>      -0.44642857       0.44642857       0.37500000 </v>
   <v>      -0.41071429       0.44642857       0.37500000 </v>
   <v>      -0.37500000       0.44642857       0.37500000 </v>
   <v>      -0.33928571       0.44642857       0.37500000 </v>
   <v>      -0.30357143       0.44642857       0.37500000 </v>
   <v>      -0.26785714       0.44642857       0.37500000 </v>
   <v>      -0.23214286       0.44642857       0.37500000 </v>
   <v>      -0.19642857       0.44642857       0.37500000 </v>
   <v>      -0.16071429       0.44642857       0.37500000 </v>
   <v>      -0.12500000       0.44642857       0.37500000 </v>
   <v>      -0.08928571       0.44642857       0.37500000 </v>
   <v>      -0.05357143       0.44642857       0.37500000 </v>
   <v>      -0.01785714       0.44642857       0.37500000 </v>
   <v>       0.01785714       0.48214286       0.37500000 </v>
   <v>       0.05357143       0.48214286       0.37500000 </v>
   <v>       0.08928571       0.48214286       0.37500000 </v>
   <v>       0.12500000       0.48214286       0.37500000 </v>
   <v>       0.16071429       0.48214286       0.37500000 </v>
   <v>       0.19642857       0.48214286       0.37500000 </v>
   <v>       0.23214286       0.48214286       0.37500000 </v>
   <v>       0.26785714       0.48214286       0.37500000 </v>
   <v>       0.30357143       0.48214286       0.37500000 </v>
   <v>       0.33928571       0.48214286       0.37500000 </v>
   <v>       0.37500000       0.48214286       0.37500000 </v>
   <v>       0.41071429       0.48214286       0.37500000 </v>
   <v>       0.44642857       0.48214286       0.37500000 </v>
   <v>       0.48214286       0.48214286       0.37500000 </v>
   <v>      -0.48214286       0.48214286       0.37500000 </v>
   <v>      -0.44642857       0.48214286       0.37500000 </v>
   <v>      -0.41071429       0.48214286       0.37500000 </v>
   <v>      -0.37500000       0.48214286       0.37500000 </v>
   <v>      -0.33928571       0.48214286       0.37500000 </v>
   <v>      -0.30357143       0.48214286       0.37500000 </v>
   <v>      -0.26785714       0.48214286       0.37500000 </v>
   <v>      -0.23214286       0.48214286       0.37500000 </v>
   <v>      -0.19642857       0.48214286       0.37500000 </v>
   <v>      -0.16071429       0.48214286       0.37500000 </v>
   <v>      -0.12500000       0.48214286       0.37500000 </v>
   <v>      -0.08928571       0.48214286       0.37500000 </v>
   <v>      -0.05357143       0.48214286       0.37500000 </v>
   <v>      -0.01785714       0.48214286       0.37500000 </v>
  </varray>
  <varray name="weights" >
   <v>       0.00127551 </v>
   <v>       0.00127551 </v>
   <v>       0.00127551 </v>
   <v>       0.00127551 </v>
   <v>       0.00127551 </v>
   <v>       0.00127551 </v>
   <v>       0.00127551 </v>
   <v>       0.00127551 </v>
   <v>       0.00127551 </v>
   <v>       0.00127551 </v>
   <v>       0.00127551 </v>
   <v>       0.00127551 </v>
   <v>       0.00127551 </v>
   <v>       0.00127551 </v>
   <v>       0.00127551 </v>
   <v>       0.00127551 </v>
   <v>       0.00127551 </v>
   <v>       0.00127551 </v>
   <v>       0.00127551 </v>
   <v>       0.00127551 </v>
   <v>       0.00127551 </v>
   <v>       0.00127551 </v>
   <v>       0.00127551 </v>
   <v>       0.00127551 </v>
   <v>       0.00127551 </v>
   <v>       0.00127551 </v>
   <v>       0.00127551 </v>
   <v>       0.00127551 </v>
   <v>       0.00127551 </v>
   <v>       0.00127551 </v>
   <v>       0.00127551 </v>
   <v>       0.00127551 </v>
   <v>       0.00127551 </v>
   <v>       0.00127551 </v>
   <v>       0.00127551 </v>
   <v>       0.00127551 </v>
   <v>       0.00127551 </v>
   <v>       0.00127551 </v>
   <v>       0.00127551 </v>
   <v>       0.00127551 </v>
   <v>       0.00127551 </v>
   <v>       0.00127551 </v>
   <v>       0.00127551 </v>
   <v>       0.00127551 </v>
   <v>       0.00127551 </v>
   <v>       0.00127551 </v>
   <v>       0.00127551 </v>
   <v>       0.00127551 </v>
   <v>       0.00127551 </v>
   <v>       0.00127551 </v>
   <v>       0.00127551 </v>
   <v>       0.00127551 </v>
   <v>       0.00127551 </v>
   <v>       0.00127551 </v>
   <v>       0.00127551 </v>
   <v>       0.00127551 </v>
   <v>       0.00127551 </v>
   <v>       0.00127551 </v>
   <v>       0.00127551 </v>
   <v>       0.00127551 </v>
   <v>       0.00127551 </v>
   <v>       0.00127551 </v>
   <v>       0.00127551 </v>
   <v>       0.00127551 </v>
   <v>       0.00127551 </v>
   <v>       0.00127551 </v>
   <v>       0.00127551 </v>
   <v>       0.00127551 </v>
   <v>       0.00127551 </v>
   <v>       0.00127551 </v>
   <v>       0.00127551 </v>
   <v>       0.00127551 </v>
   <v>       0.00127551 </v>
   <v>       0.00127551 </v>
   <v>       0.00127551 </v>
   <v>       0.00127551 </v>
   <v>       0.00127551 </v>
   <v>       0.00127551 </v>
   <v>       0.00127551 </v>
   <v>       0.00127551 </v>
   <v>       0.00127551 </v>
   <v>       0.00127551 </v>
   <v>       0.00127551 </v>
   <v>       0.00127551 </v>
   <v>       0.00127551 </v>
   <v>       0.00127551 </v>
   <v>       0.00127551 </v>
   <v>       0.00127551 </v>
   <v>       0.00127551 </v>
   <v>       0.00127551 </v>
   <v>       0.00127551 </v>
   <v>       0.00127551 </v>
   <v>       0.00127551 </v>
   <v>       0.00127551 </v>
   <v>       0.00127551 </v>
   <v>       0.00127551 </v>
   <v>       0.00127551 </v>
   <v>       0.00127551 </v>
   <v>       0.00127551 </v>
   <v>       0.00127551 </v>
   <v>       0.00127551 </v>
   <v>       0.00127551 </v>
   <v>       0.00127551 </v>
   <v>       0.00127551 </v>
   <v>       0.00127551 </v>
   <v>       0.00127551 </v>
   <v>       0.00127551 </v>
   <v>       0.00127551 </v>
   <v>       0.00127551 </v>
   <v>       0.00127551 </v>
   <v>       0.00127551 </v>
   <v>       0.00127551 </v>
   <v>       0.00127551 </v>
   <v>       0.00127551 </v>
   <v>       0.00127551 </v>
   <v>       0.00127551 </v>
   <v>       0.00127551 </v>
   <v>       0.00127551 </v>
   <v>       0.00127551 </v>
   <v>       0.00127551 </v>
   <v>       0.00127551 </v>
   <v>       0.00127551 </v>
   <v>       0.00127551 </v>
   <v>       0.00127551 </v>
   <v>       0.00127551 </v>
   <v>       0.00127551 </v>
   <v>       0.00127551 </v>
   <v>       0.00127551 </v>
   <v>       0.00127551 </v>
   <v>       0.00127551 </v>
   <v>       0.00127551 </v>
   <v>       0.00127551 </v>
   <v>       0.00127551 </v>
   <v>       0.00127551 </v>
   <v>       0.00127551 </v>
   <v>       0.00127551 </v>
   <v>       0.00127551 </v>
   <v>       0.00127551 </v>
   <v>       0.00127551 </v>
   <v>       0.00127551 </v>
   <v>       0.00127551 </v>
   <v>       0.00127551 </v>
   <v>       0.00127551 </v>
   <v>       0.00127551 </v>
   <v>       0.00127551 </v>
   <v>       0.00127551 </v>
   <v>       0.00127551 </v>
   <v>       0.00127551 </v>
   <v>       0.00127551 </v>
   <v>       0.00127551 </v>
   <v>       0.00127551 </v>
   <v>       0.00127551 </v>
   <v>       0.00127551 </v>
   <v>       0.00127551 </v>
   <v>       0.00127551 </v>
   <v>       0.00127551 </v>
   <v>       0.00127551 </v>
   <v>       0.00127551 </v>
   <v>       0.00127551 </v>
   <v>       0.00127551 </v>
   <v>       0.00127551 </v>
   <v>       0.00127551 </v>
   <v>       0.00127551 </v>
   <v>       0.00127551 </v>
   <v>       0.00127551 </v>
   <v>       0.00127551 </v>
   <v>       0.00127551 </v>
   <v>       0.00127551 </v>
   <v>       0.00127551 </v>
   <v>       0.00127551 </v>
   <v>       0.00127551 </v>
   <v>       0.00127551 </v>
   <v>       0.00127551 </v>
   <v>       0.00127551 </v>
   <v>       0.00127551 </v>
   <v>       0.00127551 </v>
   <v>       0.00127551 </v>
   <v>       0.00127551 </v>
   <v>       0.00127551 </v>
   <v>       0.00127551 </v>
   <v>       0.00127551 </v>
   <v>       0.00127551 </v>
   <v>       0.00127551 </v>
   <v>       0.00127551 </v>
   <v>       0.00127551 </v>
   <v>       0.00127551 </v>
   <v>       0.00127551 </v>
   <v>       0.00127551 </v>
   <v>       0.00127551 </v>
   <v>       0.00127551 </v>
   <v>       0.00127551 </v>
   <v>       0.00127551 </v>
   <v>       0.00127551 </v>
   <v>       0.00127551 </v>
   <v>       0.00127551 </v>
   <v>       0.00127551 </v>
   <v>       0.00127551 </v>
   <v>       0.00127551 </v>
   <v>       0.00127551 </v>
   <v>       0.00127551 </v>
   <v>       0.00127551 </v>
   <v>       0.00127551 </v>
   <v>       0.00127551 </v>
   <v>       0.00127551 </v>
   <v>       0.00127551 </v>
   <v>       0.00127551 </v>
   <v>       0.00127551 </v>
   <v>       0.00127551 </v>
   <v>       0.00127551 </v>
   <v>       0.00127551 </v>
   <v>       0.00127551 </v>
   <v>       0.00127551 </v>
   <v>       0.00127551 </v>
   <v>       0.00127551 </v>
   <v>       0.00127551 </v>
   <v>       0.00127551 </v>
   <v>       0.00127551 </v>
   <v>       0.00127551 </v>
   <v>       0.00127551 </v>
   <v>       0.00127551 </v>
   <v>       0.00127551 </v>
   <v>       0.00127551 </v>
   <v>       0.00127551 </v>
   <v>       0.00127551 </v>
   <v>       0.00127551 </v>
   <v>       0.00127551 </v>
   <v>       0.00127551 </v>
   <v>       0.00127551 </v>
   <v>       0.00127551 </v>
   <v>       0.00127551 </v>
   <v>       0.00127551 </v>
   <v>       0.00127551 </v>
   <v>       0.00127551 </v>
   <v>       0.00127551 </v>
   <v>       0.00127551 </v>
   <v>       0.00127551 </v>
   <v>       0.00127551 </v>
   <v>       0.00127551 </v>
   <v>       0.00127551 </v>
   <v>       0.00127551 </v>
   <v>       0.00127551 </v>
   <v>       0.00127551 </v>
   <v>       0.00127551 </v>
   <v>       0.00127551 </v>
   <v>       0.00127551 </v>
   <v>       0.00127551 </v>
   <v>       0.00127551 </v>
   <v>       0.00127551 </v>
   <v>       0.00127551 </v>
   <v>       0.00127551 </v>
   <v>       0.00127551 </v>
   <v>       0.00127551 </v>
   <v>       0.00127551 </v>
   <v>       0.00127551 </v>
   <v>       0.00127551 </v>
   <v>       0.00127551 </v>
   <v>       0.00127551 </v>
   <v>       0.00127551 </v>
   <v>       0.00127551 </v>
   <v>       0.00127551 </v>
   <v>       0.00127551 </v>
   <v>       0.00127551 </v>
   <v>       0.00127551 </v>
   <v>       0.00127551 </v>
   <v>       0.00127551 </v>
   <v>       0.00127551 </v>
   <v>       0.00127551 </v>
   <v>       0.00127551 </v>
   <v>       0.00127551 </v>
   <v>       0.00127551 </v>
   <v>       0.00127551 </v>
   <v>       0.00127551 </v>
   <v>       0.00127551 </v>
   <v>       0.00127551 </v>
   <v>       0.00127551 </v>
   <v>       0.00127551 </v>
   <v>       0.00127551 </v>
   <v>       0.00127551 </v>
   <v>       0.00127551 </v>
   <v>       0.00127551 </v>
   <v>       0.00127551 </v>
   <v>       0.00127551 </v>
   <v>       0.00127551 </v>
   <v>       0.00127551 </v>
   <v>       0.00127551 </v>
   <v>       0.00127551 </v>
   <v>       0.00127551 </v>
   <v>       0.00127551 </v>
   <v>       0.00127551 </v>
   <v>       0.00127551 </v>
   <v>       0.00127551 </v>
   <v>       0.00127551 </v>
   <v>       0.00127551 </v>
   <v>       0.00127551 </v>
   <v>       0.00127551 </v>
   <v>       0.00127551 </v>
   <v>       0.00127551 </v>
   <v>       0.00127551 </v>
   <v>       0.00127551 </v>
   <v>       0.00127551 </v>
   <v>       0.00127551 </v>
   <v>       0.00127551 </v>
   <v>       0.00127551 </v>
   <v>       0.00127551 </v>
   <v>       0.00127551 </v>
   <v>       0.00127551 </v>
   <v>       0.00127551 </v>
   <v>       0.00127551 </v>
   <v>       0.00127551 </v>
   <v>       0.00127551 </v>
   <v>       0.00127551 </v>
   <v>       0.00127551 </v>
   <v>       0.00127551 </v>
   <v>       0.00127551 </v>
   <v>       0.00127551 </v>
   <v>       0.00127551 </v>
   <v>       0.00127551 </v>
   <v>       0.00127551 </v>
   <v>       0.00127551 </v>
   <v>       0.00127551 </v>
   <v>       0.00127551 </v>
   <v>       0.00127551 </v>
   <v>       0.00127551 </v>
   <v>       0.00127551 </v>
   <v>       0.00127551 </v>
   <v>       0.00127551 </v>
   <v>       0.00127551 </v>
   <v>       0.00127551 </v>
   <v>       0.00127551 </v>
   <v>       0.00127551 </v>
   <v>       0.00127551 </v>
   <v>       0.00127551 </v>
   <v>       0.00127551 </v>
   <v>       0.00127551 </v>
   <v>       0.00127551 </v>
   <v>       0.00127551 </v>
   <v>       0.00127551 </v>
   <v>       0.00127551 </v>
   <v>       0.00127551 </v>
   <v>       0.00127551 </v>
   <v>       0.00127551 </v>
   <v>       0.00127551 </v>
   <v>       0.00127551 </v>
   <v>       0.00127551 </v>
   <v>       0.00127551 </v>
   <v>       0.00127551 </v>
   <v>       0.00127551 </v>
   <v>       0.00127551 </v>
   <v>       0.00127551 </v>
   <v>       0.00127551 </v>
   <v>       0.00127551 </v>
   <v>       0.00127551 </v>
   <v>       0.00127551 </v>
   <v>       0.00127551 </v>
   <v>       0.00127551 </v>
   <v>       0.00127551 </v>
   <v>       0.00127551 </v>
   <v>       0.00127551 </v>
   <v>       0.00127551 </v>
   <v>       0.00127551 </v>
   <v>       0.00127551 </v>
   <v>       0.00127551 </v>
   <v>       0.00127551 </v>
   <v>       0.00127551 </v>
   <v>       0.00127551 </v>
   <v>       0.00127551 </v>
   <v>       0.00127551 </v>
   <v>       0.00127551 </v>
   <v>       0.00127551 </v>
   <v>       0.00127551 </v>
   <v>       0.00127551 </v>
   <v>       0.00127551 </v>
   <v>       0.00127551 </v>
   <v>       0.00127551 </v>
   <v>       0.00127551 </v>
   <v>       0.00127551 </v>
   <v>       0.00127551 </v>
   <v>       0.00127551 </v>
   <v>       0.00127551 </v>
   <v>       0.00127551 </v>
   <v>       0.00127551 </v>
   <v>       0.00127551 </v>
   <v>       0.00127551 </v>
   <v>       0.00127551 </v>
   <v>       0.00127551 </v>
   <v>       0.00127551 </v>
   <v>       0.00127551 </v>
   <v>       0.00127551 </v>
   <v>       0.00127551 </v>
   <v>       0.00127551 </v>
   <v>       0.00127551 </v>
   <v>       0.00127551 </v>
   <v>       0.00127551 </v>
   <v>       0.00127551 </v>
   <v>       0.00127551 </v>
   <v>       0.00127551 </v>
   <v>       0.00127551 </v>
   <v>       0.00127551 </v>
   <v>       0.00127551 </v>
   <v>       0.00127551 </v>
   <v>       0.00127551 </v>
   <v>       0.00127551 </v>
   <v>       0.00127551 </v>
   <v>       0.00127551 </v>
   <v>       0.00127551 </v>
   <v>       0.00127551 </v>
   <v>       0.00127551 </v>
   <v>       0.00127551 </v>
   <v>       0.00127551 </v>
   <v>       0.00127551 </v>
   <v>       0.00127551 </v>
   <v>       0.00127551 </v>
   <v>       0.00127551 </v>
   <v>       0.00127551 </v>
   <v>       0.00127551 </v>
   <v>       0.00127551 </v>
   <v>       0.00127551 </v>
   <v>       0.00127551 </v>
   <v>       0.00127551 </v>
   <v>       0.00127551 </v>
   <v>       0.00127551 </v>
   <v>       0.00127551 </v>
   <v>       0.00127551 </v>
   <v>       0.00127551 </v>
   <v>       0.00127551 </v>
   <v>       0.00127551 </v>
   <v>       0.00127551 </v>
   <v>       0.00127551 </v>
   <v>       0.00127551 </v>
   <v>       0.00127551 </v>
   <v>       0.00127551 </v>
   <v>       0.00127551 </v>
   <v>       0.00127551 </v>
   <v>       0.00127551 </v>
   <v>       0.00127551 </v>
   <v>       0.00127551 </v>
   <v>       0.00127551 </v>
   <v>       0.00127551 </v>
   <v>       0.00127551 </v>
   <v>       0.00127551 </v>
   <v>       0.00127551 </v>
   <v>       0.00127551 </v>
   <v>       0.00127551 </v>
   <v>       0.00127551 </v>
   <v>       0.00127551 </v>
   <v>       0.00127551 </v>
   <v>       0.00127551 </v>
   <v>       0.00127551 </v>
   <v>       0.00127551 </v>
   <v>       0.00127551 </v>
   <v>       0.00127551 </v>
   <v>       0.00127551 </v>
   <v>       0.00127551 </v>
   <v>       0.00127551 </v>
   <v>       0.00127551 </v>
   <v>       0.00127551 </v>
   <v>       0.00127551 </v>
   <v>       0.00127551 </v>
   <v>       0.00127551 </v>
   <v>       0.00127551 </v>
   <v>       0.00127551 </v>
   <v>       0.00127551 </v>
   <v>       0.00127551 </v>
   <v>       0.00127551 </v>
   <v>       0.00127551 </v>
   <v>       0.00127551 </v>
   <v>       0.00127551 </v>
   <v>       0.00127551 </v>
   <v>       0.00127551 </v>
   <v>       0.00127551 </v>
   <v>       0.00127551 </v>
   <v>       0.00127551 </v>
   <v>       0.00127551 </v>
   <v>       0.00127551 </v>
   <v>       0.00127551 </v>
   <v>       0.00127551 </v>
   <v>       0.00127551 </v>
   <v>       0.00127551 </v>
   <v>       0.00127551 </v>
   <v>       0.00127551 </v>
   <v>       0.00127551 </v>
   <v>       0.00127551 </v>
   <v>       0.00127551 </v>
   <v>       0.00127551 </v>
   <v>       0.00127551 </v>
   <v>       0.00127551 </v>
   <v>       0.00127551 </v>
   <v>       0.00127551 </v>
   <v>       0.00127551 </v>
   <v>       0.00127551 </v>
   <v>       0.00127551 </v>
   <v>       0.00127551 </v>
   <v>       0.00127551 </v>
   <v>       0.00127551 </v>
   <v>       0.00127551 </v>
   <v>       0.00127551 </v>
   <v>       0.00127551 </v>
   <v>       0.00127551 </v>
   <v>       0.00127551 </v>
   <v>       0.00127551 </v>
   <v>       0.00127551 </v>
   <v>       0.00127551 </v>
   <v>       0.00127551 </v>
   <v>       0.00127551 </v>
   <v>       0.00127551 </v>
   <v>       0.00127551 </v>
   <v>       0.00127551 </v>
   <v>       0.00127551 </v>
   <v>       0.00127551 </v>
   <v>       0.00127551 </v>
   <v>       0.00127551 </v>
   <v>       0.00127551 </v>
   <v>       0.00127551 </v>
   <v>       0.00127551 </v>
   <v>       0.00127551 </v>
   <v>       0.00127551 </v>
   <v>       0.00127551 </v>
   <v>       0.00127551 </v>
   <v>       0.00127551 </v>
   <v>       0.00127551 </v>
   <v>       0.00127551 </v>
   <v>       0.00127551 </v>
   <v>       0.00127551 </v>
   <v>       0.00127551 </v>
   <v>       0.00127551 </v>
   <v>       0.00127551 </v>
   <v>       0.00127551 </v>
   <v>       0.00127551 </v>
   <v>       0.00127551 </v>
   <v>       0.00127551 </v>
   <v>       0.00127551 </v>
   <v>       0.00127551 </v>
   <v>       0.00127551 </v>
   <v>       0.00127551 </v>
   <v>       0.00127551 </v>
   <v>       0.00127551 </v>
   <v>       0.00127551 </v>
   <v>       0.00127551 </v>
   <v>       0.00127551 </v>
   <v>       0.00127551 </v>
   <v>       0.00127551 </v>
   <v>       0.00127551 </v>
   <v>       0.00127551 </v>
   <v>       0.00127551 </v>
   <v>       0.00127551 </v>
   <v>       0.00127551 </v>
   <v>       0.00127551 </v>
   <v>       0.00127551 </v>
   <v>       0.00127551 </v>
   <v>       0.00127551 </v>
   <v>       0.00127551 </v>
   <v>       0.00127551 </v>
   <v>       0.00127551 </v>
   <v>       0.00127551 </v>
   <v>       0.00127551 </v>
   <v>       0.00127551 </v>
   <v>       0.00127551 </v>
   <v>       0.00127551 </v>
   <v>       0.00127551 </v>
   <v>       0.00127551 </v>
   <v>       0.00127551 </v>
   <v>       0.00127551 </v>
   <v>       0.00127551 </v>
   <v>       0.00127551 </v>
   <v>       0.00127551 </v>
   <v>       0.00127551 </v>
   <v>       0.00127551 </v>
   <v>       0.00127551 </v>
   <v>       0.00127551 </v>
   <v>       0.00127551 </v>
   <v>       0.00127551 </v>
   <v>       0.00127551 </v>
   <v>       0.00127551 </v>
   <v>       0.00127551 </v>
   <v>       0.00127551 </v>
   <v>       0.00127551 </v>
   <v>       0.00127551 </v>
   <v>       0.00127551 </v>
   <v>       0.00127551 </v>
   <v>       0.00127551 </v>
   <v>       0.00127551 </v>
   <v>       0.00127551 </v>
   <v>       0.00127551 </v>
   <v>       0.00127551 </v>
   <v>       0.00127551 </v>
   <v>       0.00127551 </v>
   <v>       0.00127551 </v>
   <v>       0.00127551 </v>
   <v>       0.00127551 </v>
   <v>       0.00127551 </v>
   <v>       0.00127551 </v>
   <v>       0.00127551 </v>
   <v>       0.00127551 </v>
   <v>       0.00127551 </v>
   <v>       0.00127551 </v>
   <v>       0.00127551 </v>
   <v>       0.00127551 </v>
   <v>       0.00127551 </v>
   <v>       0.00127551 </v>
   <v>       0.00127551 </v>
   <v>       0.00127551 </v>
   <v>       0.00127551 </v>
   <v>       0.00127551 </v>
   <v>       0.00127551 </v>
   <v>       0.00127551 </v>
   <v>       0.00127551 </v>
   <v>       0.00127551 </v>
   <v>       0.00127551 </v>
   <v>       0.00127551 </v>
   <v>       0.00127551 </v>
   <v>       0.00127551 </v>
   <v>       0.00127551 </v>
   <v>       0.00127551 </v>
   <v>       0.00127551 </v>
   <v>       0.00127551 </v>
   <v>       0.00127551 </v>
   <v>       0.00127551 </v>
   <v>       0.00127551 </v>
   <v>       0.00127551 </v>
   <v>       0.00127551 </v>
   <v>       0.00127551 </v>
   <v>       0.00127551 </v>
   <v>       0.00127551 </v>
   <v>       0.00127551 </v>
   <v>       0.00127551 </v>
   <v>       0.00127551 </v>
   <v>       0.00127551 </v>
   <v>       0.00127551 </v>
   <v>       0.00127551 </v>
   <v>       0.00127551 </v>
   <v>       0.00127551 </v>
   <v>       0.00127551 </v>
   <v>       0.00127551 </v>
   <v>       0.00127551 </v>
   <v>       0.00127551 </v>
   <v>       0.00127551 </v>
   <v>       0.00127551 </v>
   <v>       0.00127551 </v>
   <v>       0.00127551 </v>
   <v>       0.00127551 </v>
   <v>       0.00127551 </v>
   <v>       0.00127551 </v>
   <v>       0.00127551 </v>
   <v>       0.00127551 </v>
   <v>       0.00127551 </v>
   <v>       0.00127551 </v>
   <v>       0.00127551 </v>
   <v>       0.00127551 </v>
   <v>       0.00127551 </v>
   <v>       0.00127551 </v>
   <v>       0.00127551 </v>
   <v>       0.00127551 </v>
   <v>       0.00127551 </v>
   <v>       0.00127551 </v>
   <v>       0.00127551 </v>
   <v>       0.00127551 </v>
   <v>       0.00127551 </v>
   <v>       0.00127551 </v>
   <v>       0.00127551 </v>
   <v>       0.00127551 </v>
   <v>       0.00127551 </v>
   <v>       0.00127551 </v>
   <v>       0.00127551 </v>
   <v>       0.00127551 </v>
   <v>       0.00127551 </v>
   <v>       0.00127551 </v>
   <v>       0.00127551 </v>
   <v>       0.00127551 </v>
   <v>       0.00127551 </v>
   <v>       0.00127551 </v>
   <v>       0.00127551 </v>
   <v>       0.00127551 </v>
   <v>       0.00127551 </v>
   <v>       0.00127551 </v>
   <v>       0.00127551 </v>
   <v>       0.00127551 </v>
   <v>       0.00127551 </v>
   <v>       0.00127551 </v>
   <v>       0.00127551 </v>
   <v>       0.00127551 </v>
   <v>       0.00127551 </v>
   <v>       0.00127551 </v>
   <v>       0.00127551 </v>
   <v>       0.00127551 </v>
   <v>       0.00127551 </v>
   <v>       0.00127551 </v>
   <v>       0.00127551 </v>
   <v>       0.00127551 </v>
   <v>       0.00127551 </v>
   <v>       0.00127551 </v>
   <v>       0.00127551 </v>
   <v>       0.00127551 </v>
   <v>       0.00127551 </v>
   <v>       0.00127551 </v>
   <v>       0.00127551 </v>
   <v>       0.00127551 </v>
   <v>       0.00127551 </v>
   <v>       0.00127551 </v>
   <v>       0.00127551 </v>
   <v>       0.00127551 </v>
   <v>       0.00127551 </v>
   <v>       0.00127551 </v>
   <v>       0.00127551 </v>
   <v>       0.00127551 </v>
   <v>       0.00127551 </v>
   <v>       0.00127551 </v>
   <v>       0.00127551 </v>
   <v>       0.00127551 </v>
   <v>       0.00127551 </v>
   <v>       0.00127551 </v>
   <v>       0.00127551 </v>
   <v>       0.00127551 </v>
   <v>       0.00127551 </v>
   <v>       0.00127551 </v>
   <v>       0.00127551 </v>
   <v>       0.00127551 </v>
   <v>       0.00127551 </v>
   <v>       0.00127551 </v>
   <v>       0.00127551 </v>
   <v>       0.00127551 </v>
   <v>       0.00127551 </v>
   <v>       0.00127551 </v>
   <v>       0.00127551 </v>
   <v>       0.00127551 </v>
   <v>       0.00127551 </v>
   <v>       0.00127551 </v>
   <v>       0.00127551 </v>
   <v>       0.00127551 </v>
   <v>       0.00127551 </v>
   <v>       0.00127551 </v>
   <v>       0.00127551 </v>
   <v>       0.00127551 </v>
   <v>       0.00127551 </v>
   <v>       0.00127551 </v>
   <v>       0.00127551 </v>
   <v>       0.00127551 </v>
   <v>       0.00127551 </v>
   <v>       0.00127551 </v>
   <v>       0.00127551 </v>
   <v>       0.00127551 </v>
   <v>       0.00127551 </v>
   <v>       0.00127551 </v>
   <v>       0.00127551 </v>
   <v>       0.00127551 </v>
   <v>       0.00127551 </v>
   <v>       0.00127551 </v>
   <v>       0.00127551 </v>
   <v>       0.00127551 </v>
   <v>       0.00127551 </v>
   <v>       0.00127551 </v>
   <v>       0.00127551 </v>
   <v>       0.00127551 </v>
   <v>       0.00127551 </v>
   <v>       0.00127551 </v>
   <v>       0.00127551 </v>
   <v>       0.00127551 </v>
   <v>       0.00127551 </v>
   <v>       0.00127551 </v>
   <v>       0.00127551 </v>
   <v>       0.00127551 </v>
   <v>       0.00127551 </v>
   <v>       0.00127551 </v>
   <v>       0.00127551 </v>
   <v>       0.00127551 </v>
   <v>       0.00127551 </v>
   <v>       0.00127551 </v>
   <v>       0.00127551 </v>
   <v>       0.00127551 </v>
   <v>       0.00127551 </v>
   <v>       0.00127551 </v>
   <v>       0.00127551 </v>
   <v>       0.00127551 </v>
   <v>       0.00127551 </v>
   <v>       0.00127551 </v>
   <v>       0.00127551 </v>
   <v>       0.00127551 </v>
   <v>       0.00127551 </v>
   <v>       0.00127551 </v>
   <v>       0.00127551 </v>
   <v>       0.00127551 </v>
   <v>       0.00127551 </v>
   <v>       0.00127551 </v>
   <v>       0.00127551 </v>
   <v>       0.00127551 </v>
  </varray>
 </kpoints>
 <parameters>
  <separator name="general" >
   <i type="string" name="SYSTEM">Al fcc relaxation</i>
   <i type="logical" name="LCOMPAT"> F  </i>
  </separator>
  <separator name="electronic" >
   <i type="string" name="PREC">accura</i>
   <i name="ENMAX">    400.00000000</i>
   <i name="ENAUG">    291.05200000</i>
   <i name="EDIFF">      0.00000100</i>
   <i type="int" name="IALGO">    68</i>
   <i type="int" name="IWAVPR">    10</i>
   <i type="int" name="NBANDS">    32</i>
   <i name="NELECT">     18.00000000</i>
   <i type="int" name="TURBO">     0</i>
   <i type="int" name="IRESTART">     0</i>
   <i type="int" name="NREBOOT">     0</i>
   <i type="int" name="NMIN">     0</i>
   <i name="EREF">      0.00000000</i>
   <separator name="electronic smearing" >
    <i type="int" name="ISMEAR">     1</i>
    <i name="SIGMA">      0.20000000</i>
    <i name="KSPACING">      0.08000000</i>
    <i type="logical" name="KGAMMA"> T  </i>
   </separator>
   <separator name="electronic projectors" >
    <i type="logical" name="LREAL"> T  </i>
    <v name="ROPT">     -0.00025000</v>
    <i type="int" name="LMAXPAW">  -100</i>
    <i type="int" name="LMAXMIX">     2</i>
    <i type="logical" name="NLSPLINE"> F  </i>
   </separator>
   <separator name="electronic startup" >
    <i type="int" name="ISTART">     0</i>
    <i type="int" name="ICHARG">     2</i>
    <i type="int" name="INIWAV">     1</i>
   </separator>
   <separator name="electronic spin" >
    <i type="int" name="ISPIN">     1</i>
    <i type="logical" name="LNONCOLLINEAR"> F  </i>
    <v name="MAGMOM">      1.00000000      1.00000000      1.00000000      1.00000000      1.00000000      1.00000000</v>
    <i name="NUPDOWN">     -1.00000000</i>
    <i type="logical" name="LSORBIT"> F  </i>
    <v name="SAXIS">      0.00000000      0.00000000      1.00000000</v>
    <i type="logical" name="LSPIRAL"> F  </i>
    <v name="QSPIRAL">      0.00000000      0.00000000      0.00000000</v>
    <i type="logical" name="LZEROZ"> F  </i>
   </separator>
   <separator name="electronic exchange-correlation" >
    <i type="logical" name="LASPH"> F  </i>
    <i type="logical" name="LMETAGGA"> F  </i>
   </separator>
   <separator name="electronic convergence" >
    <i type="int" name="NELM">    60</i>
    <i type="int" name="NELMDL">    -5</i>
    <i type="int" name="NELMIN">     4</i>
    <i name="ENINI">    400.00000000</i>
    <separator name="electronic convergence detail" >
     <i type="logical" name="LDIAG"> T  </i>
     <i type="logical" name="LSUBROT"> F  </i>
     <i name="WEIMIN">      0.00000000</i>
     <i name="EBREAK">      0.00000001</i>
     <i name="DEPER">      0.30000000</i>
     <i type="int" name="NRMM">     4</i>
     <i name="TIME">      0.40000000</i>
    </separator>
   </separator>
   <separator name="electronic mixer" >
    <i name="AMIX">      0.40000000</i>
    <i name="BMIX">      1.00000000</i>
    <i name="AMIN">      0.10000000</i>
    <i name="AMIX_MAG">      1.60000000</i>
    <i name="BMIX_MAG">      1.00000000</i>
    <separator name="electronic mixer details" >
     <i type="int" name="IMIX">     4</i>
     <i type="logical" name="MIXFIRST"> F  </i>
     <i type="int" name="MAXMIX">   -45</i>
     <i name="WC">    100.00000000</i>
     <i type="int" name="INIMIX">     1</i>
     <i type="int" name="MIXPRE">     1</i>
     <i type="int" name="MREMOVE">     5</i>
    </separator>
   </separator>
   <separator name="electronic dipolcorrection" >
    <i type="logical" name="LDIPOL"> F  </i>
    <i type="logical" name="LMONO"> F  </i>
    <i type="int" name="IDIPOL">     0</i>
    <i name="EPSILON">      1.00000000</i>
    <v name="DIPOL">   -100.00000000   -100.00000000   -100.00000000</v>
    <i name="EFIELD">      0.00000000</i>
   </separator>
  </separator>
  <separator name="grids" >
   <i type="int" name="NGX">    20</i>
   <i type="int" name="NGY">    20</i>
   <i type="int" name="NGZ">   160</i>
   <i type="int" name="NGXF">    40</i>
   <i type="int" name="NGYF">    40</i>
   <i type="int" name="NGZF">   320</i>
   <i type="logical" name="ADDGRID"> F  </i>
  </separator>
  <separator name="ionic" >
   <i type="int" name="NSW">     0</i>
   <i type="int" name="IBRION">    -1</i>
   <i type="int" name="MDALGO">     0</i>
   <i type="int" name="ISIF">     3</i>
   <i name="PSTRESS">      0.00000000</i>
   <i name="EDIFFG">      0.00001000</i>
   <i type="int" name="NFREE">     1</i>
   <i name="POTIM">      0.50000000</i>
   <i name="SMASS">     -3.00000000</i>
   <i name="SCALEE">      1.00000000</i>
  </separator>
  <separator name="ionic md" >
   <i name="TEBEG">      0.00010000</i>
   <i name="TEEND">      0.00010000</i>
   <i type="int" name="NBLOCK">     1</i>
   <i type="int" name="KBLOCK">     1</i>
[...]
       <r>   12.1832    0.0000 </r>
       <r>   13.3226    0.0000 </r>
      </set>
      <set comment="kpoint 782">
       <r>   -4.7050    1.0000 </r>
       <r>   -4.0914    1.0000 </r>
       <r>   -4.0460    1.0000 </r>
       <r>   -3.4427    1.0000 </r>
       <r>   -2.9847    1.0000 </r>
       <r>   -2.3733    1.0000 </r>
       <r>   -1.5646    1.0000 </r>
       <r>   -0.9562    1.0000 </r>
       <r>    0.2099    1.0000 </r>
       <r>    0.7992    1.0000 </r>
       <r>    2.3724   -0.0059 </r>
       <r>    2.8872   -0.0000 </r>
       <r>    3.9486   -0.0000 </r>
       <r>    4.4587   -0.0000 </r>
       <r>    6.7476   -0.0000 </r>
       <r>    7.3059   -0.0000 </r>
       <r>    8.8130    0.0000 </r>
       <r>    9.3536    0.0000 </r>
       <r>    9.3942    0.0000 </r>
       <r>    9.9259    0.0000 </r>
       <r>    9.9741    0.0000 </r>
       <r>    9.9941    0.0000 </r>
       <r>   10.5164    0.0000 </r>
       <r>   10.5840    0.0000 </r>
       <r>   10.7936    0.0000 </r>
       <r>   10.8653    0.0000 </r>
       <r>   11.2487    0.0000 </r>
       <r>   11.3983    0.0000 </r>
       <r>   11.6620    0.0000 </r>
       <r>   11.8758    0.0000 </r>
       <r>   12.5904    0.0000 </r>
       <r>   12.7283    0.0000 </r>
      </set>
      <set comment="kpoint 783">
       <r>   -4.7945    1.0000 </r>
       <r>   -4.1803    1.0000 </r>
       <r>   -4.1351    1.0000 </r>
       <r>   -3.5311    1.0000 </r>
       <r>   -3.0733    1.0000 </r>
       <r>   -2.4612    1.0000 </r>
       <r>   -1.6527    1.0000 </r>
       <r>   -1.0436    1.0000 </r>
       <r>    0.1231    1.0000 </r>
       <r>    0.7129    1.0000 </r>
       <r>    2.2872   -0.0201 </r>
       <r>    2.8023   -0.0000 </r>
       <r>    3.8644   -0.0000 </r>
       <r>    4.3743   -0.0000 </r>
       <r>    6.6740   -0.0000 </r>
       <r>    7.2341   -0.0000 </r>
       <r>    8.7570    0.0000 </r>
       <r>    9.3260    0.0000 </r>
       <r>    9.9112    0.0000 </r>
       <r>   10.3631    0.0000 </r>
       <r>   10.5258    0.0000 </r>
       <r>   10.7567    0.0000 </r>
       <r>   10.9131    0.0000 </r>
       <r>   10.9843    0.0000 </r>
       <r>   11.2454    0.0000 </r>
       <r>   11.3627    0.0000 </r>
       <r>   11.4946    0.0000 </r>
       <r>   11.7579    0.0000 </r>
       <r>   11.9936    0.0000 </r>
       <r>   12.3412    0.0000 </r>
       <r>   12.9615    0.0000 </r>
       <r>   13.1668    0.0000 </r>
      </set>
      <set comment="kpoint 784">
       <r>   -4.8392    1.0000 </r>
       <r>   -4.2248    1.0000 </r>
       <r>   -4.1796    1.0000 </r>
       <r>   -3.5753    1.0000 </r>
       <r>   -3.1177    1.0000 </r>
       <r>   -2.5052    1.0000 </r>
       <r>   -1.6967    1.0000 </r>
       <r>   -1.0874    1.0000 </r>
       <r>    0.0797    1.0000 </r>
       <r>    0.6697    1.0000 </r>
       <r>    2.2445   -0.0297 </r>
       <r>    2.7598   -0.0000 </r>
       <r>    3.8223   -0.0000 </r>
       <r>    4.3321   -0.0000 </r>
       <r>    6.6361   -0.0000 </r>
       <r>    7.1971   -0.0000 </r>
       <r>    8.7232    0.0000 </r>
       <r>    9.2958    0.0000 </r>
       <r>    9.8711    0.0000 </r>
       <r>   10.4939    0.0000 </r>
       <r>   10.7512    0.0000 </r>
       <r>   11.1847    0.0000 </r>
       <r>   11.2162    0.0000 </r>
       <r>   11.3853    0.0000 </r>
       <r>   11.7302    0.0000 </r>
       <r>   11.7761    0.0000 </r>
       <r>   11.8372    0.0000 </r>
       <r>   12.3065    0.0000 </r>
       <r>   12.6507    0.0000 </r>
       <r>   12.8273    0.0000 </r>
       <r>   13.4334    0.0000 </r>
       <r>   13.9854    0.0000 </r>
      </set>
     </set>
    </set>
   </array>
  </eigenvalues>
  <separator name="orbital magnetization" >
   <v name="MAGDIPOLOUT">      0.00000000      0.00000000      0.00000000</v>
  </separator>
  <dos>
   <i name="efermi">      1.95410798 </i>
   <total>
    <array>
     <dimension dim="1">gridpoints</dimension>
     <dimension dim="2">spin</dimension>
     <field>energy</field>
     <field>total</field>
     <field>integrated</field>
     <set>
      <set comment="spin 1">
       <r>   -10.9849     0.0000     0.0000 </r>
       <r>   -10.8928     0.0000     0.0000 </r>
       <r>   -10.8006     0.0000     0.0000 </r>
       <r>   -10.7085     0.0000     0.0000 </r>
       <r>   -10.6163    -0.0000    -0.0000 </r>
       <r>   -10.5241    -0.0000    -0.0000 </r>
       <r>   -10.4320    -0.0000    -0.0000 </r>
       <r>   -10.3398    -0.0000    -0.0000 </r>
       <r>   -10.2477    -0.0000    -0.0000 </r>
       <r>   -10.1555    -0.0000    -0.0000 </r>
       <r>   -10.0634    -0.0000    -0.0000 </r>
       <r>    -9.9712    -0.0000    -0.0000 </r>
       <r>    -9.8790    -0.0000    -0.0000 </r>
       <r>    -9.7869    -0.0000    -0.0000 </r>
       <r>    -9.6947    -0.0000    -0.0000 </r>
       <r>    -9.6026    -0.0000    -0.0000 </r>
       <r>    -9.5104    -0.0001    -0.0000 </r>
       <r>    -9.4183    -0.0009    -0.0001 </r>
       <r>    -9.3261    -0.0042    -0.0005 </r>
       <r>    -9.2340    -0.0104    -0.0014 </r>
       <r>    -9.1418    -0.0049    -0.0019 </r>
       <r>    -9.0496     0.0487     0.0026 </r>
       <r>    -8.9575     0.1633     0.0176 </r>
       <r>    -8.8653     0.2838     0.0438 </r>
       <r>    -8.7732     0.3472     0.0758 </r>
       <r>    -8.6810     0.3550     0.1085 </r>
       <r>    -8.5889     0.3435     0.1402 </r>
       <r>    -8.4967     0.3407     0.1716 </r>
       <r>    -8.4046     0.3781     0.2064 </r>
       <r>    -8.3124     0.4858     0.2512 </r>
       <r>    -8.2202     0.6141     0.3078 </r>
       <r>    -8.1281     0.6834     0.3708 </r>
       <r>    -8.0359     0.7093     0.4361 </r>
       <r>    -7.9438     0.7159     0.5021 </r>
       <r>    -7.8516     0.6940     0.5660 </r>
       <r>    -7.7595     0.6828     0.6290 </r>
       <r>    -7.6673     0.7127     0.6947 </r>
       <r>    -7.5752     0.7191     0.7609 </r>
       <r>    -7.4830     0.6634     0.8221 </r>
       <r>    -7.3908     0.6669     0.8835 </r>
       <r>    -7.2987     0.7877     0.9561 </r>
       <r>    -7.2065     0.8961     1.0387 </r>
       <r>    -7.1144     0.9485     1.1261 </r>
       <r>    -7.0222     1.0226     1.2203 </r>
       <r>    -6.9301     1.0937     1.3211 </r>
       <r>    -6.8379     1.0880     1.4214 </r>
       <r>    -6.7458     1.0512     1.5183 </r>
       <r>    -6.6536     1.0431     1.6144 </r>
       <r>    -6.5614     1.0380     1.7100 </r>
       <r>    -6.4693     1.0442     1.8063 </r>
       <r>    -6.3771     1.0839     1.9062 </r>
       <r>    -6.2850     1.1040     2.0079 </r>
       <r>    -6.1928     1.0571     2.1053 </r>
       <r>    -6.1007     0.9975     2.1972 </r>
       <r>    -6.0085     1.0138     2.2907 </r>
       <r>    -5.9163     1.0850     2.3907 </r>
       <r>    -5.8242     1.1701     2.4985 </r>
       <r>    -5.7320     1.2740     2.6159 </r>
       <r>    -5.6399     1.3499     2.7403 </r>
       <r>    -5.5477     1.3569     2.8653 </r>
       <r>    -5.4556     1.3516     2.9899 </r>
       <r>    -5.3634     1.4317     3.1218 </r>
       <r>    -5.2713     1.5436     3.2641 </r>
       <r>    -5.1791     1.5255     3.4047 </r>
       <r>    -5.0869     1.3952     3.5333 </r>
       <r>    -4.9948     1.2868     3.6518 </r>
       <r>    -4.9026     1.2885     3.7706 </r>
       <r>    -4.8105     1.4406     3.9033 </r>
       <r>    -4.7183     1.6146     4.0521 </r>
       <r>    -4.6262     1.5982     4.1994 </r>
       <r>    -4.5340     1.4115     4.3295 </r>
       <r>    -4.4419     1.2529     4.4450 </r>
       <r>    -4.3497     1.2369     4.5590 </r>
       <r>    -4.2575     1.3854     4.6866 </r>
       <r>    -4.1654     1.6055     4.8346 </r>
       <r>    -4.0732     1.6798     4.9894 </r>
       <r>    -3.9811     1.5827     5.1352 </r>
       <r>    -3.8889     1.5285     5.2761 </r>
       <r>    -3.7968     1.5892     5.4226 </r>
       <r>    -3.7046     1.6897     5.5783 </r>
       <r>    -3.6125     1.8515     5.7489 </r>
       <r>    -3.5203     2.0026     5.9334 </r>
       <r>    -3.4281     1.9405     6.1123 </r>
       <r>    -3.3360     1.7836     6.2766 </r>
       <r>    -3.2438     1.7479     6.4377 </r>
       <r>    -3.1517     1.7217     6.5964 </r>
       <r>    -3.0595     1.6648     6.7498 </r>
       <r>    -2.9674     1.7245     6.9087 </r>
       <r>    -2.8752     1.8831     7.0823 </r>
       <r>    -2.7830     1.9753     7.2643 </r>
       <r>    -2.6909     1.9332     7.4425 </r>
       <r>    -2.5987     1.8141     7.6096 </r>
       <r>    -2.5066     1.6987     7.7662 </r>
       <r>    -2.4144     1.6859     7.9215 </r>
       <r>    -2.3223     1.7889     8.0864 </r>
       <r>    -2.2301     1.8757     8.2593 </r>
       <r>    -2.1380     1.8608     8.4307 </r>
       <r>    -2.0458     1.8248     8.5989 </r>
       <r>    -1.9536     1.8555     8.7699 </r>
       <r>    -1.8615     1.9492     8.9495 </r>
       <r>    -1.7693     2.0637     9.1397 </r>
       <r>    -1.6772     2.1300     9.3360 </r>
       <r>    -1.5850     2.0979     9.5293 </r>
       <r>    -1.4929     2.0459     9.7179 </r>
       <r>    -1.4007     2.1374     9.9149 </r>
       <r>    -1.3086     2.3211    10.1288 </r>
       <r>    -1.2164     2.3573    10.3460 </r>
       <r>    -1.1242     2.2822    10.5563 </r>
       <r>    -1.0321     2.3080    10.7690 </r>
       <r>    -0.9399     2.3663    10.9871 </r>
       <r>    -0.8478     2.2999    11.1990 </r>
       <r>    -0.7556     2.1823    11.4002 </r>
       <r>    -0.6635     2.1356    11.5970 </r>
       <r>    -0.5713     2.1559    11.7956 </r>
       <r>    -0.4792     2.2578    12.0037 </r>
       <r>    -0.3870     2.4617    12.2306 </r>
       <r>    -0.2948     2.6095    12.4711 </r>
       <r>    -0.2027     2.5431    12.7054 </r>
       <r>    -0.1105     2.3325    12.9204 </r>
       <r>    -0.0184     2.2063    13.1237 </r>
       <r>     0.0738     2.3165    13.3372 </r>
       <r>     0.1659     2.5007    13.5676 </r>
       <r>     0.2581     2.5390    13.8016 </r>
       <r>     0.3503     2.5053    14.0325 </r>
       <r>     0.4424     2.5374    14.2663 </r>
       <r>     0.5346     2.5932    14.5053 </r>
       <r>     0.6267     2.6161    14.7464 </r>
       <r>     0.7189     2.5804    14.9842 </r>
       <r>     0.8110     2.4314    15.2083 </r>
       <r>     0.9032     2.3038    15.4206 </r>
       <r>     0.9953     2.3998    15.6417 </r>
       <r>     1.0875     2.6009    15.8814 </r>
       <r>     1.1797     2.7275    16.1328 </r>
       <r>     1.2718     2.8295    16.3935 </r>
       <r>     1.3640     2.8279    16.6542 </r>
       <r>     1.4561     2.6545    16.8988 </r>
       <r>     1.5483     2.5151    17.1306 </r>
       <r>     1.6404     2.3744    17.3494 </r>
       <r>     1.7326     2.0881    17.5418 </r>
       <r>     1.8247     1.9244    17.7192 </r>
       <r>     1.9169     2.1019    17.9129 </r>
       <r>     2.0091     2.4506    18.1387 </r>
       <r>     2.1012     2.7875    18.3956 </r>
       <r>     2.1934     2.9806    18.6703 </r>
       <r>     2.2855     2.9101    18.9384 </r>
       <r>     2.3777     2.6705    19.1846 </r>
       <r>     2.4698     2.4783    19.4129 </r>
       <r>     2.5620     2.4729    19.6408 </r>
       <r>     2.6541     2.6435    19.8845 </r>
       <r>     2.7463     2.8679    20.1487 </r>
       <r>     2.8385     3.1208    20.4363 </r>
       <r>     2.9306     3.3702    20.7469 </r>
       <r>     3.0228     3.3385    21.0546 </r>
       <r>     3.1149     2.9095    21.3227 </r>
       <r>     3.2071     2.5089    21.5539 </r>
       <r>     3.2992     2.4971    21.7841 </r>
       <r>     3.3914     2.6879    22.0318 </r>
       <r>     3.4836     2.8155    22.2912 </r>
       <r>     3.5757     2.7875    22.5481 </r>
       <r>     3.6679     2.6147    22.7891 </r>
       <r>     3.7600     2.5925    23.0280 </r>
       <r>     3.8522     2.9706    23.3017 </r>
       <r>     3.9443     3.4454    23.6192 </r>
       <r>     4.0365     3.5493    23.9463 </r>
       <r>     4.1286     3.1441    24.2361 </r>
       <r>     4.2208     2.5617    24.4722 </r>
       <r>     4.3130     2.3857    24.6920 </r>
       <r>     4.4051     2.6366    24.9350 </r>
       <r>     4.4973     2.8922    25.2015 </r>
       <r>     4.5894     3.1405    25.4909 </r>
       <r>     4.6816     3.4111    25.8053 </r>
       <r>     4.7737     3.4460    26.1229 </r>
       <r>     4.8659     3.2615    26.4234 </r>
       <r>     4.9580     3.1570    26.7144 </r>
       <r>     5.0502     3.2359    27.0126 </r>
       <r>     5.1424     3.3805    27.3241 </r>
       <r>     5.2345     3.4952    27.6462 </r>
       <r>     5.3267     3.5030    27.9690 </r>
       <r>     5.4188     3.3523    28.2779 </r>
       <r>     5.5110     3.0972    28.5634 </r>
       <r>     5.6031     2.8966    28.8303 </r>
       <r>     5.6953     2.9847    29.1054 </r>
       <r>     5.7874     3.3045    29.4099 </r>
       <r>     5.8796     3.5249    29.7347 </r>
       <r>     5.9718     3.7257    30.0781 </r>
       <r>     6.0639     4.1237    30.4581 </r>
       <r>     6.1561     4.4314    30.8665 </r>
       <r>     6.2482     4.2789    31.2608 </r>
       <r>     6.3404     3.8324    31.6140 </r>
       <r>     6.4325     3.5559    31.9417 </r>
       <r>     6.5247     3.5138    32.2655 </r>
       <r>     6.6168     3.5710    32.5946 </r>
       <r>     6.7090     3.7614    32.9412 </r>
       <r>     6.8012     3.9830    33.3083 </r>
       <r>     6.8933     4.0999    33.6861 </r>
       <r>     6.9855     4.1859    34.0718 </r>
       <r>     7.0776     4.3209    34.4700 </r>
       <r>     7.1698     4.4679    34.8818 </r>
       <r>     7.2619     4.4788    35.2945 </r>
       <r>     7.3541     4.3071    35.6915 </r>
       <r>     7.4463     4.2139    36.0798 </r>
       <r>     7.5384     4.3066    36.4767 </r>
       <r>     7.6306     4.3112    36.8740 </r>
       <r>     7.7227     4.2236    37.2632 </r>
       <r>     7.8149     4.3150    37.6609 </r>
       <r>     7.9070     4.4994    38.0755 </r>
       <r>     7.9992     4.5302    38.4930 </r>
       <r>     8.0913     4.4377    38.9019 </r>
       <r>     8.1835     4.4860    39.3154 </r>
       <r>     8.2757     4.7966    39.7574 </r>
       <r>     8.3678     5.0660    40.2242 </r>
       <r>     8.4600     4.9659    40.6819 </r>
       <r>     8.5521     4.6199    41.1076 </r>
       <r>     8.6443     4.3864    41.5119 </r>
       <r>     8.7364     4.3782    41.9153 </r>
       <r>     8.8286     4.4001    42.3208 </r>
       <r>     8.9207     4.3395    42.7208 </r>
       <r>     9.0129     4.3257    43.1194 </r>
       <r>     9.1051     4.4307    43.5277 </r>
       <r>     9.1972     4.6300    43.9544 </r>
       <r>     9.2894     4.8998    44.4059 </r>
       <r>     9.3815     5.0869    44.8747 </r>
       <r>     9.4737     5.0255    45.3379 </r>
       <r>     9.5658     4.8156    45.7816 </r>
       <r>     9.6580     4.6107    46.2065 </r>
       <r>     9.7501     4.4354    46.6153 </r>
       <r>     9.8423     4.4241    47.0230 </r>
       <r>     9.9345     4.6558    47.4521 </r>
       <r>    10.0266     4.8324    47.8974 </r>
       <r>    10.1188     4.6472    48.3257 </r>
       <r>    10.2109     4.2779    48.7199 </r>
       <r>    10.3031     4.2093    49.1078 </r>
       <r>    10.3952     4.6953    49.5405 </r>
       <r>    10.4874     5.4113    50.0392 </r>
       <r>    10.5796     5.7715    50.5711 </r>
       <r>    10.6717     5.6575    51.0924 </r>
       <r>    10.7639     5.4156    51.5915 </r>
       <r>    10.8560     5.1746    52.0684 </r>
       <r>    10.9482     4.8300    52.5135 </r>
       <r>    11.0403     4.6141    52.9387 </r>
       <r>    11.1325     4.7569    53.3771 </r>
       <r>    11.2246     4.9945    53.8374 </r>
       <r>    11.3168     5.0815    54.3057 </r>
       <r>    11.4090     5.0820    54.7740 </r>
       <r>    11.5011     5.0475    55.2392 </r>
       <r>    11.5933     4.9386    55.6943 </r>
       <r>    11.6854     4.8501    56.1412 </r>
       <r>    11.7776     4.8812    56.5911 </r>
       <r>    11.8697     4.8901    57.0417 </r>
       <r>    11.9619     4.7794    57.4822 </r>
       <r>    12.0540     4.6531    57.9110 </r>
       <r>    12.1462     4.6080    58.3356 </r>
       <r>    12.2384     4.7024    58.7690 </r>
       <r>    12.3305     4.8222    59.2134 </r>
       <r>    12.4227     4.6577    59.6426 </r>
       <r>    12.5148     4.1576    60.0258 </r>
       <r>    12.6070     3.6960    60.3664 </r>
       <r>    12.6991     3.5615    60.6946 </r>
       <r>    12.7913     3.6873    61.0344 </r>
       <r>    12.8834     3.8592    61.3901 </r>
       <r>    12.9756     3.7969    61.7400 </r>
       <r>    13.0678     3.3678    62.0503 </r>
       <r>    13.1599     2.8073    62.3090 </r>
       <r>    13.2521     2.5178    62.5411 </r>
       <r>    13.3442     2.5237    62.7736 </r>
       <r>    13.4364     2.4003    62.9948 </r>
       <r>    13.5285     2.0408    63.1829 </r>
       <r>    13.6207     1.7247    63.3418 </r>
       <r>    13.7129     1.5093    63.4809 </r>
       <r>    13.8050     1.3288    63.6034 </r>
       <r>    13.8972     1.2197    63.7158 </r>
       <r>    13.9893     1.0936    63.8166 </r>
       <r>    14.0815     0.7738    63.8879 </r>
       <r>    14.1736     0.3775    63.9227 </r>
       <r>    14.2658     0.1862    63.9398 </r>
       <r>    14.3579     0.2031    63.9585 </r>
       <r>    14.4501     0.2230    63.9791 </r>
       <r>    14.5423     0.1525    63.9931 </r>
       <r>    14.6344     0.0604    63.9987 </r>
       <r>    14.7266     0.0146    64.0001 </r>
       <r>    14.8187     0.0029    64.0003 </r>
       <r>    14.9109    -0.0008    64.0002 </r>
       <r>    15.0030    -0.0016    64.0001 </r>
       <r>    15.0952    -0.0008    64.0000 </r>
       <r>    15.1873    -0.0002    64.0000 </r>
       <r>    15.2795    -0.0000    64.0000 </r>
       <r>    15.3717    -0.0000    64.0000 </r>
       <r>    15.4638    -0.0000    64.0000 </r>
       <r>    15.5560    -0.0000    64.0000 </r>
       <r>    15.6481    -0.0000    64.0000 </r>
       <r>    15.7403    -0.0000    64.0000 </r>
       <r>    15.8324    -0.0000    64.0000 </r>
       <r>    15.9246    -0.0000    64.0000 </r>
       <r>    16.0167     0.0000    64.0000 </r>
       <r>    16.1089     0.0000    64.0000 </r>
       <r>    16.2011     0.0000    64.0000 </r>
       <r>    16.2932     0.0000    64.0000 </r>
       <r>    16.3854     0.0000    64.0000 </r>
       <r>    16.4775     0.0000    64.0000 </r>
       <r>    16.5697     0.0000    64.0000 </r>
       <r>    16.6618     0.0000    64.0000 </r>
      </set>
     </set>
    </array>
   </total>
  </dos>
 </calculation>
 <structure name="finalpos" >
  <crystal>
   <varray name="basis" >
    <v>       2.85595457       0.00000000       0.00000000 </v>
    <v>      -0.00000000       2.85595457       0.00000000 </v>
    <v>       0.01000000       0.00000000      24.23357816 </v>
   </varray>
   <i name="volume">    197.66061157 </i>
   <varray name="rec_basis" >
    <v>       0.35014563       0.00000000      -0.00014449 </v>
    <v>       0.00000000       0.35014563       0.00000000 </v>
    <v>      -0.00000000      -0.00000000       0.04126506 </v>
   </varray>
  </crystal>
  <varray name="positions" >
   <v>       0.00000000       0.00000000       0.87500000 </v>
   <v>       0.50000000       0.50000000       0.95833333 </v>
   <v>       0.00000000       0.00000000       0.70833333 </v>
   <v>       0.50000000       0.50000000       0.79166667 </v>
   <v>       0.00000000       0.00000000       0.54166667 </v>
   <v>       0.50000000       0.50000000       0.62500000 </v>
  </varray>
 </structure>
</modeling>
