ITEM: TIMESTEP
0
ITEM: NUMBER OF ATOMS
4
ITEM: BOX BOUNDS xy xz yz pp pp pp
0.0000000000000000e+00 4.0369359481000000e+00 0.0000000000000000e+00
0.0000000000000000e+00 4.0369359481000000e+00 0.0000000000000000e+00
0.0000000000000000e+00 4.0570704169000003e+00 0.0000000000000000e+00
ITEM: ATOMS id type xs ys zs fx fy fz
1 1 0 0 0 2.33638e-10 2.33638e-10 2.31079e-10
4 1 0.5 0 0.5 -2.33638e-10 2.33638e-10 -2.31079e-10
3 1 0.5 0.5 0 -2.33638e-10 -2.33638e-10 2.31079e-10
2 1 0 0.5 0.5 2.33638e-10 -2.33638e-10 -2.31079e-10
ITEM: TIMESTEP
1
ITEM: NUMBER OF ATOMS
4
ITEM: BOX BOUNDS xy xz yz pp pp pp
0.0000000000000000e+00 4.0369359481000000e+00 0.0000000000000000e+00
0.0000000000000000e+00 4.0369359481000000e+00 0.0000000000000000e+00
0.0000000000000000e+00 4.0570704169000003e+00 0.0000000000000000e+00
ITEM: ATOMS id type xs ys zs fx fy fz
1 1 6.21521e-12 6.21521e-12 6.11662e-12 -8.45976e-13 -8.46028e-13 1.70895e-12
4 1 0.5 6.2152e-12 0.5 8.4599e-13 -8.45664e-13 -1.70915e-12
3 1 0.5 0.5 6.11662e-12 8.45962e-13 8.45757e-13 1.70911e-12
2 1 6.21521e-12 0.5 0.5 -8.45907e-13 8.45911e-13 -1.70905e-12
