
4 atoms
1 atom types
   0.0000000000    3.7475593637 xlo xhi
   0.0000000000    3.7475593637 ylo yhi
   0.0000000000    3.7475593637 zlo zhi
  -0.0000000000   -0.0000000000   -0.0000000000 xy xz yz

Atoms # atomic

     1      1    0.0000000000    0.0000000000    0.0000000000
     2      1    0.0000000000    1.8737796819    1.8737796819
     3      1    1.8737796819    1.8737796819    0.0000000000
     4      1    1.8737796819    0.0000000000    1.8737796819
