ITEM: TIMESTEP
0
ITEM: NUMBER OF ATOMS
4
ITEM: BOX BOUNDS xy xz yz pp pp pp
0.0000000000000000e+00 3.7475593637000002e+00 -0.0000000000000000e+00
0.0000000000000000e+00 3.7475593637000002e+00 -0.0000000000000000e+00
0.0000000000000000e+00 3.7475593637000002e+00 -0.0000000000000000e+00
ITEM: ATOMS id type xs ys zs fx fy fz
1 1 0 0 0 5.25697e-10 5.25698e-10 5.25697e-10
4 1 0.5 0 0.5 -5.25697e-10 5.25698e-10 -5.25697e-10
3 1 0.5 0.5 0 -5.25697e-10 -5.25698e-10 5.25697e-10
2 1 0 0.5 0.5 5.25697e-10 -5.25698e-10 -5.25697e-10
ITEM: TIMESTEP
1
ITEM: NUMBER OF ATOMS
4
ITEM: BOX BOUNDS xy xz yz pp pp pp
0.0000000000000000e+00 3.7475593637000002e+00 -0.0000000000000000e+00
0.0000000000000000e+00 3.7475593637000002e+00 -0.0000000000000000e+00
0.0000000000000000e+00 3.7475593637000002e+00 -0.0000000000000000e+00
ITEM: ATOMS id type xs ys zs fx fy fz
1 1 6.671e-12 6.67101e-12 6.671e-12 -1.11022e-15 -1.33693e-15 -1.15371e-15
4 1 0.5 6.67101e-12 0.5 1.6237e-15 -1.83263e-15 1.6189e-15
3 1 0.5 0.5 6.67101e-12 1.8735e-15 1.68225e-15 -2.13642e-15
2 1 6.67101e-12 0.5 0.5 -2.33147e-15 1.41732e-15 1.56695e-15
