<?xml version="1.0" encoding="ISO-8859-1"?>
<modeling>
 <generator>
  <i name="program" type="string">vasp </i>
  <i name="version" type="string">6.4.2  </i>
  <i name="subversion" type="string">20Jul23 (build Apr 22 2024 22:35:45) complex                          parallel </i>
  <i name="platform" type="string">LinuxGNU </i>
  <i name="date" type="string">2024 05 26 </i>
  <i name="time" type="string">15:51:14 </i>
 </generator>
 <incar>
  <i type="string" name="SYSTEM">Al fcc relaxation</i>
  <i type="string" name="PREC">Accurate</i>
  <i type="string" name="ALGO">Fast</i>
  <i type="int" name="NELM">    60</i>
  <i type="int" name="NELMIN">     4</i>
  <i type="int" name="IBRION">     2</i>
  <i name="EDIFF">      0.00000100</i>
  <i type="int" name="NSW">   100</i>
  <i type="int" name="ISIF">     4</i>
  <i name="ENCUT">    400.00000000</i>
  <i type="string" name="LREAL">Auto</i>
  <i type="int" name="ISMEAR">     1</i>
  <i name="SIGMA">      0.20000000</i>
  <i name="KSPACING">      0.08000000</i>
  <i type="logical" name="LWAVE"> F  </i>
  <i type="logical" name="LCHARG"> F  </i>
 </incar>
 <primitive_cell>
  <structure name="primitive_cell" >
   <crystal>
    <varray name="basis" >
     <v>       2.05257671      -2.05257671       0.00000000 </v>
     <v>       2.05257671       0.00000000       2.05257671 </v>
     <v>       0.00000000      -2.05257671       2.05257671 </v>
    </varray>
    <i name="volume">     17.29530351 </i>
    <varray name="rec_basis" >
     <v>       0.24359625      -0.24359625      -0.24359625 </v>
     <v>       0.24359625       0.24359625       0.24359625 </v>
     <v>      -0.24359625      -0.24359625       0.24359625 </v>
    </varray>
   </crystal>
   <varray name="positions" >
    <v>       0.00000000       0.00000000       0.00000000 </v>
   </varray>
  </structure>
  <varray name="primitive_index" >
   <v type="int" >        1 </v>
  </varray>
 </primitive_cell>
 <kpoints>
  <generation param="Monkhorst-Pack">
   <v type="int" name="divisions">      20       20       20 </v>
   <v name="usershift">      0.00000000       0.00000000       0.00000000 </v>
   <v name="genvec1">      0.05000000       0.00000000       0.00000000 </v>
   <v name="genvec2">      0.00000000       0.05000000       0.00000000 </v>
   <v name="genvec3">     -0.00000000      -0.00000000       0.05000000 </v>
   <v name="shift">      0.50000000       0.50000000       0.50000000 </v>
  </generation>
  <varray name="kpointlist" >
   <v>       0.02500000       0.02500000       0.02500000 </v>
   <v>       0.07500000       0.02500000       0.02500000 </v>
   <v>       0.12500000       0.02500000       0.02500000 </v>
   <v>       0.17500000       0.02500000       0.02500000 </v>
   <v>       0.22500000       0.02500000       0.02500000 </v>
   <v>       0.27500000       0.02500000       0.02500000 </v>
   <v>       0.32500000       0.02500000       0.02500000 </v>
   <v>       0.37500000       0.02500000       0.02500000 </v>
   <v>       0.42500000       0.02500000       0.02500000 </v>
   <v>       0.47500000       0.02500000       0.02500000 </v>
   <v>       0.07500000       0.07500000       0.02500000 </v>
   <v>       0.12500000       0.07500000       0.02500000 </v>
   <v>       0.17500000       0.07500000       0.02500000 </v>
   <v>       0.22500000       0.07500000       0.02500000 </v>
   <v>       0.27500000       0.07500000       0.02500000 </v>
   <v>       0.32500000       0.07500000       0.02500000 </v>
   <v>       0.37500000       0.07500000       0.02500000 </v>
   <v>       0.42500000       0.07500000       0.02500000 </v>
   <v>       0.47500000       0.07500000       0.02500000 </v>
   <v>       0.12500000       0.12500000       0.02500000 </v>
   <v>       0.17500000       0.12500000       0.02500000 </v>
   <v>       0.22500000       0.12500000       0.02500000 </v>
   <v>       0.27500000       0.12500000       0.02500000 </v>
   <v>       0.32500000       0.12500000       0.02500000 </v>
   <v>       0.37500000       0.12500000       0.02500000 </v>
   <v>       0.42500000       0.12500000       0.02500000 </v>
   <v>       0.47500000       0.12500000       0.02500000 </v>
   <v>       0.17500000       0.17500000       0.02500000 </v>
   <v>       0.22500000       0.17500000       0.02500000 </v>
   <v>       0.27500000       0.17500000       0.02500000 </v>
   <v>       0.32500000       0.17500000       0.02500000 </v>
   <v>       0.37500000       0.17500000       0.02500000 </v>
   <v>       0.42500000       0.17500000       0.02500000 </v>
   <v>       0.47500000       0.17500000       0.02500000 </v>
   <v>       0.22500000       0.22500000       0.02500000 </v>
   <v>       0.27500000       0.22500000       0.02500000 </v>
   <v>       0.32500000       0.22500000       0.02500000 </v>
   <v>       0.37500000       0.22500000       0.02500000 </v>
   <v>       0.42500000       0.22500000       0.02500000 </v>
   <v>       0.47500000       0.22500000       0.02500000 </v>
   <v>       0.27500000       0.27500000       0.02500000 </v>
   <v>       0.32500000       0.27500000       0.02500000 </v>
   <v>       0.37500000       0.27500000       0.02500000 </v>
   <v>       0.42500000       0.27500000       0.02500000 </v>
   <v>       0.47500000       0.27500000       0.02500000 </v>
   <v>       0.32500000       0.32500000       0.02500000 </v>
   <v>       0.37500000       0.32500000       0.02500000 </v>
   <v>       0.42500000       0.32500000       0.02500000 </v>
   <v>       0.47500000       0.32500000       0.02500000 </v>
   <v>       0.37500000       0.37500000       0.02500000 </v>
   <v>       0.42500000       0.37500000       0.02500000 </v>
   <v>       0.47500000       0.37500000       0.02500000 </v>
   <v>       0.42500000       0.42500000       0.02500000 </v>
   <v>       0.47500000       0.42500000       0.02500000 </v>
   <v>       0.47500000       0.47500000       0.02500000 </v>
   <v>       0.07500000       0.07500000       0.07500000 </v>
   <v>       0.12500000       0.07500000       0.07500000 </v>
   <v>       0.17500000       0.07500000       0.07500000 </v>
   <v>       0.22500000       0.07500000       0.07500000 </v>
   <v>       0.27500000       0.07500000       0.07500000 </v>
   <v>       0.32500000       0.07500000       0.07500000 </v>
   <v>       0.37500000       0.07500000       0.07500000 </v>
   <v>       0.42500000       0.07500000       0.07500000 </v>
   <v>       0.47500000       0.07500000       0.07500000 </v>
   <v>       0.12500000       0.12500000       0.07500000 </v>
   <v>       0.17500000       0.12500000       0.07500000 </v>
   <v>       0.22500000       0.12500000       0.07500000 </v>
   <v>       0.27500000       0.12500000       0.07500000 </v>
   <v>       0.32500000       0.12500000       0.07500000 </v>
   <v>       0.37500000       0.12500000       0.07500000 </v>
   <v>       0.42500000       0.12500000       0.07500000 </v>
   <v>       0.47500000       0.12500000       0.07500000 </v>
   <v>       0.17500000       0.17500000       0.07500000 </v>
   <v>       0.22500000       0.17500000       0.07500000 </v>
   <v>       0.27500000       0.17500000       0.07500000 </v>
   <v>       0.32500000       0.17500000       0.07500000 </v>
   <v>       0.37500000       0.17500000       0.07500000 </v>
   <v>       0.42500000       0.17500000       0.07500000 </v>
   <v>       0.47500000       0.17500000       0.07500000 </v>
   <v>       0.22500000       0.22500000       0.07500000 </v>
   <v>       0.27500000       0.22500000       0.07500000 </v>
   <v>       0.32500000       0.22500000       0.07500000 </v>
   <v>       0.37500000       0.22500000       0.07500000 </v>
   <v>       0.42500000       0.22500000       0.07500000 </v>
   <v>       0.47500000       0.22500000       0.07500000 </v>
   <v>       0.27500000       0.27500000       0.07500000 </v>
   <v>       0.32500000       0.27500000       0.07500000 </v>
   <v>       0.37500000       0.27500000       0.07500000 </v>
   <v>       0.42500000       0.27500000       0.07500000 </v>
   <v>       0.47500000       0.27500000       0.07500000 </v>
   <v>       0.32500000       0.32500000       0.07500000 </v>
   <v>       0.37500000       0.32500000       0.07500000 </v>
   <v>       0.42500000       0.32500000       0.07500000 </v>
   <v>       0.47500000       0.32500000       0.07500000 </v>
   <v>       0.37500000       0.37500000       0.07500000 </v>
   <v>       0.42500000       0.37500000       0.07500000 </v>
   <v>       0.47500000       0.37500000       0.07500000 </v>
   <v>       0.42500000       0.42500000       0.07500000 </v>
   <v>       0.47500000       0.42500000       0.07500000 </v>
   <v>       0.47500000       0.47500000       0.07500000 </v>
   <v>       0.12500000       0.12500000       0.12500000 </v>
   <v>       0.17500000       0.12500000       0.12500000 </v>
   <v>       0.22500000       0.12500000       0.12500000 </v>
   <v>       0.27500000       0.12500000       0.12500000 </v>
   <v>       0.32500000       0.12500000       0.12500000 </v>
   <v>       0.37500000       0.12500000       0.12500000 </v>
   <v>       0.42500000       0.12500000       0.12500000 </v>
   <v>       0.47500000       0.12500000       0.12500000 </v>
   <v>       0.17500000       0.17500000       0.12500000 </v>
   <v>       0.22500000       0.17500000       0.12500000 </v>
   <v>       0.27500000       0.17500000       0.12500000 </v>
   <v>       0.32500000       0.17500000       0.12500000 </v>
   <v>       0.37500000       0.17500000       0.12500000 </v>
   <v>       0.42500000       0.17500000       0.12500000 </v>
   <v>       0.47500000       0.17500000       0.12500000 </v>
   <v>       0.22500000       0.22500000       0.12500000 </v>
   <v>       0.27500000       0.22500000       0.12500000 </v>
   <v>       0.32500000       0.22500000       0.12500000 </v>
   <v>       0.37500000       0.22500000       0.12500000 </v>
   <v>       0.42500000       0.22500000       0.12500000 </v>
   <v>       0.47500000       0.22500000       0.12500000 </v>
   <v>       0.27500000       0.27500000       0.12500000 </v>
   <v>       0.32500000       0.27500000       0.12500000 </v>
   <v>       0.37500000       0.27500000       0.12500000 </v>
   <v>       0.42500000       0.27500000       0.12500000 </v>
   <v>       0.47500000       0.27500000       0.12500000 </v>
   <v>       0.32500000       0.32500000       0.12500000 </v>
   <v>       0.37500000       0.32500000       0.12500000 </v>
   <v>       0.42500000       0.32500000       0.12500000 </v>
   <v>       0.47500000       0.32500000       0.12500000 </v>
   <v>       0.37500000       0.37500000       0.12500000 </v>
   <v>       0.42500000       0.37500000       0.12500000 </v>
   <v>       0.47500000       0.37500000       0.12500000 </v>
   <v>       0.42500000       0.42500000       0.12500000 </v>
   <v>       0.47500000       0.42500000       0.12500000 </v>
   <v>       0.47500000       0.47500000       0.12500000 </v>
   <v>       0.17500000       0.17500000       0.17500000 </v>
   <v>       0.22500000       0.17500000       0.17500000 </v>
   <v>       0.27500000       0.17500000       0.17500000 </v>
   <v>       0.32500000       0.17500000       0.17500000 </v>
   <v>       0.37500000       0.17500000       0.17500000 </v>
   <v>       0.42500000       0.17500000       0.17500000 </v>
   <v>       0.47500000       0.17500000       0.17500000 </v>
   <v>       0.22500000       0.22500000       0.17500000 </v>
   <v>       0.27500000       0.22500000       0.17500000 </v>
   <v>       0.32500000       0.22500000       0.17500000 </v>
   <v>       0.37500000       0.22500000       0.17500000 </v>
   <v>       0.42500000       0.22500000       0.17500000 </v>
   <v>       0.47500000       0.22500000       0.17500000 </v>
   <v>       0.27500000       0.27500000       0.17500000 </v>
   <v>       0.32500000       0.27500000       0.17500000 </v>
   <v>       0.37500000       0.27500000       0.17500000 </v>
   <v>       0.42500000       0.27500000       0.17500000 </v>
   <v>       0.47500000       0.27500000       0.17500000 </v>
   <v>       0.32500000       0.32500000       0.17500000 </v>
   <v>       0.37500000       0.32500000       0.17500000 </v>
   <v>       0.42500000       0.32500000       0.17500000 </v>
   <v>       0.47500000       0.32500000       0.17500000 </v>
   <v>       0.37500000       0.37500000       0.17500000 </v>
   <v>       0.42500000       0.37500000       0.17500000 </v>
   <v>       0.47500000       0.37500000       0.17500000 </v>
   <v>       0.42500000       0.42500000       0.17500000 </v>
   <v>       0.47500000       0.42500000       0.17500000 </v>
   <v>       0.47500000       0.47500000       0.17500000 </v>
   <v>       0.22500000       0.22500000       0.22500000 </v>
   <v>       0.27500000       0.22500000       0.22500000 </v>
   <v>       0.32500000       0.22500000       0.22500000 </v>
   <v>       0.37500000       0.22500000       0.22500000 </v>
   <v>       0.42500000       0.22500000       0.22500000 </v>
   <v>       0.47500000       0.22500000       0.22500000 </v>
   <v>       0.27500000       0.27500000       0.22500000 </v>
   <v>       0.32500000       0.27500000       0.22500000 </v>
   <v>       0.37500000       0.27500000       0.22500000 </v>
   <v>       0.42500000       0.27500000       0.22500000 </v>
   <v>       0.47500000       0.27500000       0.22500000 </v>
   <v>       0.32500000       0.32500000       0.22500000 </v>
   <v>       0.37500000       0.32500000       0.22500000 </v>
   <v>       0.42500000       0.32500000       0.22500000 </v>
   <v>       0.47500000       0.32500000       0.22500000 </v>
   <v>       0.37500000       0.37500000       0.22500000 </v>
   <v>       0.42500000       0.37500000       0.22500000 </v>
   <v>       0.47500000       0.37500000       0.22500000 </v>
   <v>       0.42500000       0.42500000       0.22500000 </v>
   <v>       0.47500000       0.42500000       0.22500000 </v>
   <v>       0.47500000       0.47500000       0.22500000 </v>
   <v>       0.27500000       0.27500000       0.27500000 </v>
   <v>       0.32500000       0.27500000       0.27500000 </v>
   <v>       0.37500000       0.27500000       0.27500000 </v>
   <v>       0.42500000       0.27500000       0.27500000 </v>
   <v>       0.47500000       0.27500000       0.27500000 </v>
   <v>       0.32500000       0.32500000       0.27500000 </v>
   <v>       0.37500000       0.32500000       0.27500000 </v>
   <v>       0.42500000       0.32500000       0.27500000 </v>
   <v>       0.47500000       0.32500000       0.27500000 </v>
   <v>       0.37500000       0.37500000       0.27500000 </v>
   <v>       0.42500000       0.37500000       0.27500000 </v>
   <v>       0.47500000       0.37500000       0.27500000 </v>
   <v>       0.42500000       0.42500000       0.27500000 </v>
   <v>       0.47500000       0.42500000       0.27500000 </v>
   <v>       0.47500000       0.47500000       0.27500000 </v>
   <v>       0.32500000       0.32500000       0.32500000 </v>
   <v>       0.37500000       0.32500000       0.32500000 </v>
   <v>       0.42500000       0.32500000       0.32500000 </v>
   <v>       0.47500000       0.32500000       0.32500000 </v>
   <v>       0.37500000       0.37500000       0.32500000 </v>
   <v>       0.42500000       0.37500000       0.32500000 </v>
   <v>       0.47500000       0.37500000       0.32500000 </v>
   <v>       0.42500000       0.42500000       0.32500000 </v>
   <v>       0.47500000       0.42500000       0.32500000 </v>
   <v>       0.47500000       0.47500000       0.32500000 </v>
   <v>       0.37500000       0.37500000       0.37500000 </v>
   <v>       0.42500000       0.37500000       0.37500000 </v>
   <v>       0.47500000       0.37500000       0.37500000 </v>
   <v>       0.42500000       0.42500000       0.37500000 </v>
   <v>       0.47500000       0.42500000       0.37500000 </v>
   <v>       0.47500000       0.47500000       0.37500000 </v>
   <v>       0.42500000       0.42500000       0.42500000 </v>
   <v>       0.47500000       0.42500000       0.42500000 </v>
   <v>       0.47500000       0.47500000       0.42500000 </v>
   <v>       0.47500000       0.47500000       0.47500000 </v>
  </varray>
  <varray name="weights" >
   <v>       0.00100000 </v>
   <v>       0.00300000 </v>
   <v>       0.00300000 </v>
   <v>       0.00300000 </v>
   <v>       0.00300000 </v>
   <v>       0.00300000 </v>
   <v>       0.00300000 </v>
   <v>       0.00300000 </v>
   <v>       0.00300000 </v>
   <v>       0.00300000 </v>
   <v>       0.00300000 </v>
   <v>       0.00600000 </v>
   <v>       0.00600000 </v>
   <v>       0.00600000 </v>
   <v>       0.00600000 </v>
   <v>       0.00600000 </v>
   <v>       0.00600000 </v>
   <v>       0.00600000 </v>
   <v>       0.00600000 </v>
   <v>       0.00300000 </v>
   <v>       0.00600000 </v>
   <v>       0.00600000 </v>
   <v>       0.00600000 </v>
   <v>       0.00600000 </v>
   <v>       0.00600000 </v>
   <v>       0.00600000 </v>
   <v>       0.00600000 </v>
   <v>       0.00300000 </v>
   <v>       0.00600000 </v>
   <v>       0.00600000 </v>
   <v>       0.00600000 </v>
   <v>       0.00600000 </v>
   <v>       0.00600000 </v>
   <v>       0.00600000 </v>
   <v>       0.00300000 </v>
   <v>       0.00600000 </v>
   <v>       0.00600000 </v>
   <v>       0.00600000 </v>
   <v>       0.00600000 </v>
   <v>       0.00600000 </v>
   <v>       0.00300000 </v>
   <v>       0.00600000 </v>
   <v>       0.00600000 </v>
   <v>       0.00600000 </v>
   <v>       0.00600000 </v>
   <v>       0.00300000 </v>
   <v>       0.00600000 </v>
   <v>       0.00600000 </v>
   <v>       0.00600000 </v>
   <v>       0.00300000 </v>
   <v>       0.00600000 </v>
   <v>       0.00600000 </v>
   <v>       0.00300000 </v>
   <v>       0.00600000 </v>
   <v>       0.00300000 </v>
   <v>       0.00100000 </v>
   <v>       0.00300000 </v>
   <v>       0.00300000 </v>
   <v>       0.00300000 </v>
   <v>       0.00300000 </v>
   <v>       0.00300000 </v>
   <v>       0.00300000 </v>
   <v>       0.00300000 </v>
   <v>       0.00300000 </v>
   <v>       0.00300000 </v>
   <v>       0.00600000 </v>
   <v>       0.00600000 </v>
   <v>       0.00600000 </v>
   <v>       0.00600000 </v>
   <v>       0.00600000 </v>
   <v>       0.00600000 </v>
   <v>       0.00600000 </v>
   <v>       0.00300000 </v>
   <v>       0.00600000 </v>
   <v>       0.00600000 </v>
   <v>       0.00600000 </v>
   <v>       0.00600000 </v>
   <v>       0.00600000 </v>
   <v>       0.00600000 </v>
   <v>       0.00300000 </v>
   <v>       0.00600000 </v>
   <v>       0.00600000 </v>
   <v>       0.00600000 </v>
   <v>       0.00600000 </v>
   <v>       0.00600000 </v>
   <v>       0.00300000 </v>
   <v>       0.00600000 </v>
   <v>       0.00600000 </v>
   <v>       0.00600000 </v>
   <v>       0.00600000 </v>
   <v>       0.00300000 </v>
   <v>       0.00600000 </v>
   <v>       0.00600000 </v>
   <v>       0.00600000 </v>
   <v>       0.00300000 </v>
   <v>       0.00600000 </v>
   <v>       0.00600000 </v>
   <v>       0.00300000 </v>
   <v>       0.00600000 </v>
   <v>       0.00300000 </v>
   <v>       0.00100000 </v>
   <v>       0.00300000 </v>
   <v>       0.00300000 </v>
   <v>       0.00300000 </v>
   <v>       0.00300000 </v>
   <v>       0.00300000 </v>
   <v>       0.00300000 </v>
   <v>       0.00300000 </v>
   <v>       0.00300000 </v>
   <v>       0.00600000 </v>
   <v>       0.00600000 </v>
   <v>       0.00600000 </v>
   <v>       0.00600000 </v>
   <v>       0.00600000 </v>
   <v>       0.00600000 </v>
   <v>       0.00300000 </v>
   <v>       0.00600000 </v>
   <v>       0.00600000 </v>
   <v>       0.00600000 </v>
   <v>       0.00600000 </v>
   <v>       0.00600000 </v>
   <v>       0.00300000 </v>
   <v>       0.00600000 </v>
   <v>       0.00600000 </v>
   <v>       0.00600000 </v>
   <v>       0.00600000 </v>
   <v>       0.00300000 </v>
   <v>       0.00600000 </v>
   <v>       0.00600000 </v>
   <v>       0.00600000 </v>
   <v>       0.00300000 </v>
   <v>       0.00600000 </v>
   <v>       0.00600000 </v>
   <v>       0.00300000 </v>
   <v>       0.00600000 </v>
   <v>       0.00300000 </v>
   <v>       0.00100000 </v>
   <v>       0.00300000 </v>
   <v>       0.00300000 </v>
   <v>       0.00300000 </v>
   <v>       0.00300000 </v>
   <v>       0.00300000 </v>
   <v>       0.00300000 </v>
   <v>       0.00300000 </v>
   <v>       0.00600000 </v>
   <v>       0.00600000 </v>
   <v>       0.00600000 </v>
   <v>       0.00600000 </v>
   <v>       0.00600000 </v>
   <v>       0.00300000 </v>
   <v>       0.00600000 </v>
   <v>       0.00600000 </v>
   <v>       0.00600000 </v>
   <v>       0.00600000 </v>
   <v>       0.00300000 </v>
   <v>       0.00600000 </v>
   <v>       0.00600000 </v>
   <v>       0.00600000 </v>
   <v>       0.00300000 </v>
   <v>       0.00600000 </v>
   <v>       0.00600000 </v>
   <v>       0.00300000 </v>
   <v>       0.00600000 </v>
   <v>       0.00300000 </v>
   <v>       0.00100000 </v>
   <v>       0.00300000 </v>
   <v>       0.00300000 </v>
   <v>       0.00300000 </v>
   <v>       0.00300000 </v>
   <v>       0.00300000 </v>
   <v>       0.00300000 </v>
   <v>       0.00600000 </v>
   <v>       0.00600000 </v>
   <v>       0.00600000 </v>
   <v>       0.00600000 </v>
   <v>       0.00300000 </v>
   <v>       0.00600000 </v>
   <v>       0.00600000 </v>
   <v>       0.00600000 </v>
   <v>       0.00300000 </v>
   <v>       0.00600000 </v>
   <v>       0.00600000 </v>
   <v>       0.00300000 </v>
   <v>       0.00600000 </v>
   <v>       0.00300000 </v>
   <v>       0.00100000 </v>
   <v>       0.00300000 </v>
   <v>       0.00300000 </v>
   <v>       0.00300000 </v>
   <v>       0.00300000 </v>
   <v>       0.00300000 </v>
   <v>       0.00600000 </v>
   <v>       0.00600000 </v>
   <v>       0.00600000 </v>
   <v>       0.00300000 </v>
   <v>       0.00600000 </v>
   <v>       0.00600000 </v>
   <v>       0.00300000 </v>
   <v>       0.00600000 </v>
   <v>       0.00300000 </v>
   <v>       0.00100000 </v>
   <v>       0.00300000 </v>
   <v>       0.00300000 </v>
   <v>       0.00300000 </v>
   <v>       0.00300000 </v>
   <v>       0.00600000 </v>
   <v>       0.00600000 </v>
   <v>       0.00300000 </v>
   <v>       0.00600000 </v>
   <v>       0.00300000 </v>
   <v>       0.00100000 </v>
   <v>       0.00300000 </v>
   <v>       0.00300000 </v>
   <v>       0.00300000 </v>
   <v>       0.00600000 </v>
   <v>       0.00300000 </v>
   <v>       0.00100000 </v>
   <v>       0.00300000 </v>
   <v>       0.00300000 </v>
   <v>       0.00100000 </v>
  </varray>
 </kpoints>
 <parameters>
  <separator name="general" >
   <i type="string" name="SYSTEM">Al fcc relaxation</i>
   <i type="logical" name="LCOMPAT"> F  </i>
  </separator>
  <separator name="electronic" >
   <i type="string" name="PREC">accura</i>
   <i name="ENMAX">    400.00000000</i>
   <i name="ENAUG">    291.05200000</i>
   <i name="EDIFF">      0.00000100</i>
   <i type="int" name="IALGO">    68</i>
   <i type="int" name="IWAVPR">    11</i>
   <i type="int" name="NBANDS">    14</i>
   <i type="int" name="NBANDSLOW">    -1</i>
   <i type="int" name="NBANDSHIGH">    -1</i>
   <i name="NELECT">     12.00000000</i>
   <i type="int" name="TURBO">     0</i>
   <i type="int" name="IRESTART">     0</i>
   <i type="int" name="NREBOOT">     0</i>
   <i type="int" name="NMIN">     0</i>
   <i name="EREF">      0.00000000</i>
   <separator name="electronic smearing" >
    <i type="int" name="ISMEAR">     1</i>
    <i name="SIGMA">      0.20000000</i>
    <i name="KSPACING">      0.08000000</i>
    <i type="logical" name="KGAMMA"> T  </i>
    <i type="logical" name="KBLOWUP"> T  </i>
   </separator>
   <separator name="electronic projectors" >
    <i type="logical" name="LREAL"> T  </i>
    <v name="ROPT">     -0.00025000</v>
    <i type="int" name="LMAXPAW">  -100</i>
    <i type="int" name="LMAXMIX">     2</i>
    <i type="logical" name="NLSPLINE"> F  </i>
   </separator>
   <separator name="electronic startup" >
    <i type="int" name="ISTART">     0</i>
    <i type="int" name="ICHARG">     2</i>
    <i type="int" name="INIWAV">     1</i>
   </separator>
   <separator name="electronic spin" >
    <i type="int" name="ISPIN">     1</i>
    <i type="logical" name="LNONCOLLINEAR"> F  </i>
    <v name="MAGMOM">      1.00000000      1.00000000      1.00000000      1.00000000</v>
    <i name="NUPDOWN">     -1.00000000</i>
    <i type="logical" name="LSORBIT"> F  </i>
    <v name="SAXIS">      0.00000000      0.00000000      1.00000000</v>
    <i type="logical" name="LSPIRAL"> F  </i>
    <v name="QSPIRAL">      0.00000000      0.00000000      0.00000000</v>
    <i type="logical" name="LZEROZ"> F  </i>
   </separator>
   <separator name="electronic exchange-correlation" >
    <i type="logical" name="LASPH"> F  </i>
    <i type="logical" name="LMETAGGA"> F  </i>
   </separator>
   <separator name="electronic convergence" >
    <i type="int" name="NELM">    60</i>
    <i type="int" name="NELMDL">    -5</i>
    <i type="int" name="NELMIN">     4</i>
    <i name="ENINI">    400.00000000</i>
    <separator name="electronic convergence detail" >
     <i type="logical" name="LDIAG"> T  </i>
     <i type="logical" name="LSUBROT"> F  </i>
     <i name="WEIMIN">      0.00100000</i>
     <i name="EBREAK">      0.00000002</i>
     <i name="DEPER">      0.30000000</i>
     <i type="int" name="NRMM">     4</i>
     <i name="TIME">      0.40000000</i>
    </separator>
   </separator>
   <separator name="electronic mixer" >
    <i name="AMIX">      0.40000000</i>
    <i name="BMIX">      1.00000000</i>
    <i name="AMIN">      0.10000000</i>
    <i name="AMIX_MAG">      1.60000000</i>
    <i name="BMIX_MAG">      1.00000000</i>
    <separator name="electronic mixer details" >
     <i type="int" name="IMIX">     4</i>
     <i type="logical" name="MIXFIRST"> F  </i>
     <i type="int" name="MAXMIX">   -45</i>
     <i name="WC">    100.00000000</i>
     <i type="int" name="INIMIX">     1</i>
     <i type="int" name="MIXPRE">     1</i>
     <i type="int" name="MREMOVE">     5</i>
    </separator>
   </separator>
   <separator name="electronic dipolcorrection" >
    <i type="logical" name="LDIPOL"> F  </i>
    <i type="logical" name="LMONO"> F  </i>
    <i type="int" name="IDIPOL">     0</i>
    <i name="EPSILON">      1.00000000</i>
    <v name="DIPOL">   -100.00000000   -100.00000000   -100.00000000</v>
    <i name="EFIELD">      0.00000000</i>
   </separator>
  </separator>
  <separator name="grids" >
   <i type="int" name="NGX">    28</i>
   <i type="int" name="NGY">    28</i>
   <i type="int" name="NGZ">    28</i>
   <i type="int" name="NGXF">    56</i>
   <i type="int" name="NGYF">    56</i>
   <i type="int" name="NGZF">    56</i>
   <i type="logical" name="ADDGRID"> F  </i>
  </separator>
  <separator name="ionic" >
   <i type="int" name="NSW">   100</i>
   <i type="int" name="IBRION">     2</i>
   <i type="int" name="MDALGO">     0</i>
   <i type="int" name="ISIF">     4</i>
   <i name="PSTRESS">      0.00000000</i>
   <i name="EDIFFG">      0.00001000</i>
   <i type="int" name="NFREE">     1</i>
   <i name="POTIM">      0.50000000</i>
   <i name="SMASS">     -3.00000000</i>
   <i name="SCALEE">      1.00000000</i>
  </separator>
  <separator name="ionic md" >
   <i name="TEBEG">      0.00010000</i>
   <i name="TEEND">      0.00010000</i>
   <i type="int" name="NBLOCK">     1</i>
   <i type="int" name="KBLOCK">   100</i>
   <i type="int" name="NPACO">   256</i>
   <i name="APACO">     10.00000000</i>
  </separator>
  <separator name="symmetry" >
   <i type="int" name="ISYM">     2</i>
   <i name="SYMPREC">      0.00001000</i>
  </separator>
  <separator name="dos" >
   <i type="int" name="LORBIT">     0</i>
   <v name="RWIGS">     -1.00000000</v>
   <i type="int" name="NEDOS">   301</i>
   <i name="EMIN">     10.00000000</i>
   <i name="EMAX">    -10.00000000</i>
   <i name="EFERMI">      0.00000000</i>
  </separator>
  <separator name="writing" >
   <i type="int" name="NWRITE">     2</i>
   <i type="logical" name="LWAVE"> F  </i>
   <i type="logical" name="LDOWNSAMPLE"> F  </i>
   <i type="logical" name="LCHARG"> F  </i>
   <i type="logical" name="LPARD"> F  </i>
   <i type="logical" name="LVTOT"> F  </i>
   <i type="logical" name="LVHAR"> F  </i>
   <i type="logical" name="LELF"> F  </i>
   <i type="logical" name="LOPTICS"> F  </i>
   <v name="STM">      0.00000000      0.00000000      0.00000000      0.00000000      0.00000000      0.00000000      0.00000000</v>
  </separator>
  <separator name="performance" >
   <i type="int" name="NPAR">    14</i>
   <i type="int" name="NSIM">     4</i>
   <i type="int" name="NBLK">    -1</i>
   <i type="logical" name="LPLANE"> T  </i>
   <i type="logical" name="LSCALAPACK"> T  </i>
   <i type="logical" name="LSCAAWARE"> F  </i>
   <i type="logical" name="LSCALU"> F  </i>
   <i type="logical" name="LASYNC"> F  </i>
   <i type="logical" name="LORBITALREAL"> F  </i>
  </separator>
  <separator name="miscellaneous" >
   <i type="int" name="IDIOT">     3</i>
   <i type="int" name="PHON_NSTRUCT">    -1</i>
   <i type="logical" name="LMUSIC"> F  </i>
   <v name="POMASS">     26.98100000</v>
   <v name="DARWINR">      0.00000000</v>
   <v name="DARWINV">      1.00000000</v>
   <i type="logical" name="LCORR"> T  </i>
  </separator>
  <i type="logical" name="GGA_COMPAT"> T  </i>
  <i type="logical" name="LBERRY"> F  </i>
  <i type="int" name="ICORELEVEL">     0</i>
  <i type="logical" name="LDAU"> F  </i>
  <i type="int" name="I_CONSTRAINED_M">     0</i>
  <separator name="electronic exchange-correlation" >
   <i type="string" name="GGA">--</i>
   <i type="int" name="VOSKOWN">     0</i>
   <i type="logical" name="LHFCALC"> F  </i>
   <i type="string" name="PRECFOCK"></i>
   <i type="logical" name="LSYMGRAD"> F  </i>
   <i type="logical" name="LHFONE"> F  </i>
   <i type="logical" name="LRHFCALC"> F  </i>
   <i type="logical" name="LTHOMAS"> F  </i>
   <i type="logical" name="LMODELHF"> F  </i>
   <i type="logical" name="LFOCKACE"> F  </i>
   <i name="ENCUT4O">     -1.00000000</i>
   <i type="int" name="EXXOEP">     0</i>
   <i type="int" name="FOURORBIT">     0</i>
   <i name="AEXX">      0.00000000</i>
   <i name="HFALPHA">      0.00000000</i>
   <i name="MCALPHA">      0.00000000</i>
   <i name="ALDAX">      1.00000000</i>
   <i name="AGGAX">      1.00000000</i>
   <i name="ALDAC">      1.00000000</i>
   <i name="AGGAC">      1.00000000</i>
   <i type="int" name="NKREDX">     1</i>
   <i type="int" name="NKREDY">     1</i>
   <i type="int" name="NKREDZ">     1</i>
   <i type="logical" name="SHIFTRED"> F  </i>
   <i type="logical" name="ODDONLY"> F  </i>
   <i type="logical" name="EVENONLY"> F  </i>
   <i type="int" name="LMAXFOCK">     0</i>
   <i type="int" name="NMAXFOCKAE">     0</i>
   <i type="logical" name="LFOCKAEDFT"> F  </i>
   <i name="HFSCREEN">      0.00000000</i>
   <i name="HFSCREENC">      0.00000000</i>
   <i type="int" name="NBANDSGWLOW">     0</i>
  </separator>
  <separator name="vdW DFT" >
   <i type="logical" name="LUSE_VDW"> F  </i>
   <i type="int" name="IVDW_NL">     1</i>
   <i type="logical" name="LSPIN_VDW"> F  </i>
   <i name="Zab_VDW">     -0.84910000</i>
   <i name="PARAM1">      0.12340000</i>
   <i name="PARAM2">      1.00000000</i>
   <i name="PARAM3">      0.00000000</i>
  </separator>
  <separator name="model GW" >
   <i type="int" name="MODEL_GW">     0</i>
   <i name="MODEL_EPS0">     10.37718211</i>
   <i name="MODEL_ALPHA">      1.00000000</i>
  </separator>
  <separator name="linear response parameters" >
   <i type="logical" name="LEPSILON"> F  </i>
   <i type="logical" name="LRPA"> F  </i>
   <i type="logical" name="LNABLA"> F  </i>
   <i type="logical" name="LVEL"> F  </i>
   <i name="CSHIFT">      0.10000000</i>
   <i name="OMEGAMAX">     -1.00000000</i>
   <i name="DEG_THRESHOLD">      0.00200000</i>
   <i name="RTIME">     -0.10000000</i>
   <i name="WPLASMAI">      0.00000000</i>
   <v name="DFIELD">      0.00000000      0.00000000      0.00000000</v>
   <v name="WPLASMA">      0.00000000      0.00000000      0.00000000      0.00000000      0.00000000      0.00000000      0.00000000      0.00000000      0.00000000</v>
  </separator>
  <separator name="orbital magnetization" >
   <i type="logical" name="NUCIND"> F  </i>
   <v name="MAGPOS">      0.00000000      0.00000000      0.00000000</v>
   <i type="logical" name="LNICSALL"> T  </i>
   <i type="logical" name="ORBITALMAG"> F  </i>
   <i type="logical" name="LMAGBLOCH"> F  </i>
   <i type="logical" name="LCHIMAG"> F  </i>
   <i type="logical" name="LGAUGE"> T  </i>
   <i type="int" name="MAGATOM">     0</i>
   <v name="MAGDIPOL">      0.00000000      0.00000000      0.00000000</v>
   <v name="AVECCONST">      0.00000000      0.00000000      0.00000000</v>
  </separator>
  <separator name="response functions" >
   <i type="logical" name="LALL_IN_ONE"> F  </i>
   <i type="int" name="IALL_IN_ONE">    -1</i>
   <i type="int" name="NBANDS_WAVE">    -1</i>
   <i type="logical" name="LFINITE_TEMPERATURE"> F  </i>
   <i type="logical" name="LADDER"> F  </i>
   <i type="logical" name="LRPAFORCE"> F  </i>
   <i type="logical" name="LFXC"> F  </i>
   <i type="logical" name="LHARTREE"> T  </i>
   <i type="int" name="IBSE">     0</i>
   <v type="int" name="KPOINT">    -1     0     0     0</v>
   <i type="logical" name="LTCTC"> F  </i>
   <i type="logical" name="LTCTE"> F  </i>
   <i type="logical" name="LTETE"> F  </i>
   <i type="logical" name="LTRIPLET"> F  </i>
   <i type="logical" name="LFXCEPS"> F  </i>
   <i type="logical" name="LFXHEG"> F  </i>
   <i type="int" name="NATURALO">     2</i>
   <i type="logical" name="LHOLEGF"> F  </i>
   <i type="logical" name="L2ORDER"> F  </i>
   <i type="logical" name="LDMP1"> F  </i>
   <i type="logical" name="LMP2LT"> F  </i>
   <i type="logical" name="LSMP2LT"> F  </i>
   <i type="logical" name="LGWLF"> F  </i>
   <i name="ENCUTGW">     -1.60000002</i>
   <i name="ENCUTGWSOFT">     -1.60000002</i>
   <i name="ENCUTLF">     -1.00000000</i>
   <i type="logical" name="LESF_SPLINES"> F  </i>
   <i type="int" name="LMAXMP2">    -1</i>
   <i name="SCISSOR">      0.00000000</i>
   <i type="int" name="NOMEGA">     0</i>
   <i type="int" name="NOMEGAR">     0</i>
   <i type="int" name="NBANDSGW">    -1</i>
   <i type="int" name="NBANDSO">    -1</i>
   <i type="int" name="NBANDSV">    -1</i>
   <i type="int" name="NELMGW">     1</i>
   <i type="int" name="NELMHF">     1</i>
   <i type="int" name="DIM">     3</i>
   <i type="int" name="IESPILON">     4</i>
   <i type="int" name="ANTIRES">     0</i>
   <i name="OMEGAMAX">    -30.00000000</i>
   <i name="OMEGAMIN">    -30.00000000</i>
   <i name="OMEGATL">   -200.00000000</i>
   <i type="int" name="OMEGAGRID">     0</i>
   <i name="CSHIFT">     -0.10000000</i>
   <i type="logical" name="LSELFENERGY"> F  </i>
   <i type="logical" name="LSPECTRAL"> F  </i>
   <i type="logical" name="LSPECTRALGW"> F  </i>
   <i type="logical" name="LSINGLES"> F  </i>
   <i type="logical" name="LFERMIGW"> F  </i>
   <i type="logical" name="ODDONLYGW"> F  </i>
   <i type="logical" name="EVENONLYGW"> F  </i>
   <i type="int" name="NKREDLFX">     1</i>
   <i type="int" name="NKREDLFY">     1</i>
   <i type="int" name="NKREDLFZ">     1</i>
   <i type="int" name="MAXMEM">  2800</i>
   <i type="int" name="TELESCOPE">     0</i>
   <i type="int" name="NTAUPAR">    -1</i>
   <i type="int" name="NOMEGAPAR">    -1</i>
   <i name="DAMP_NEWTON">      0.80000001</i>
   <i name="LAMBDA">      1.00000000</i>
  </separator>
  <separator name="External order field" >
   <i name="OFIELD_KAPPA">      0.00000000</i>
   <v name="OFIELD_K">      0.00000000      0.00000000      0.00000000</v>
   <i name="OFIELD_Q6_NEAR">      0.00000000</i>
   <i name="OFIELD_Q6_FAR">      0.00000000</i>
   <i name="OFIELD_A">      0.00000000</i>
  </separator>
  <separator name="optional k-points parameters" >
   <i type="int" name="KPOINTS_OPT_MODE">     1</i>
   <i type="logical" name="LKPOINTS_OPT"> F  </i>
  </separator>
 </parameters>
 <atominfo>
  <atoms>       4 </atoms>
  <types>       1 </types>
  <array name="atoms" >
   <dimension dim="1">ion</dimension>
   <field type="string">element</field>
   <field type="int">atomtype</field>
   <set>
    <rc><c>Al</c><c>   1</c></rc>
    <rc><c>Al</c><c>   1</c></rc>
    <rc><c>Al</c><c>   1</c></rc>
    <rc><c>Al</c><c>   1</c></rc>
   </set>
  </array>
  <array name="atomtypes" >
   <dimension dim="1">type</dimension>
   <field type="int">atomspertype</field>
   <field type="string">element</field>
   <field>mass</field>
   <field>valence</field>
   <field type="string">pseudopotential</field>
   <set>
    <rc><c>   4</c><c>Al</c><c>     26.98100000</c><c>      3.00000000</c><c>  PAW_PBE Al 04Jan2001                  </c></rc>
   </set>
  </array>
 </atominfo>
 <structure name="initialpos" >
  <crystal>
   <varray name="basis" >
    <v>       4.10515343       0.00000000       0.00000000 </v>
    <v>      -0.00000000       4.10515343       0.00000000 </v>
    <v>       0.00000000       0.00000000       4.10515343 </v>
   </varray>
   <i name="volume">     69.18121405 </i>
   <varray name="rec_basis" >
    <v>       0.24359625       0.00000000      -0.00000000 </v>
    <v>       0.00000000       0.24359625       0.00000000 </v>
    <v>      -0.00000000      -0.00000000       0.24359625 </v>
   </varray>
  </crystal>
  <varray name="positions" >
   <v>       0.00000000       0.00000000       0.00000000 </v>
   <v>       0.00000000       0.50000000       0.50000000 </v>
   <v>       0.50000000       0.00000000       0.50000000 </v>
   <v>       0.50000000       0.50000000       0.00000000 </v>
  </varray>
 </structure>
 <calculation>
  <scstep>
   <time name="dav">   10.24    5.14</time>
   <time name="total">   10.28    5.16</time>
   <energy>
    <i name="alphaZ">     -0.77681433 </i>
    <i name="ewald">   -289.48460007 </i>
    <i name="hartreedc">     -0.48538068 </i>
    <i name="XCdc">   -105.29490142 </i>
    <i name="pawpsdc">    264.80062850 </i>
    <i name="pawaedc">   -136.98248303 </i>
    <i name="eentropy">     -0.00120971 </i>
    <i name="bandstr">     51.69030344 </i>
    <i name="atom">    214.15261729 </i>
    <i name="e_fr_energy">     -2.38184000 </i>
    <i name="e_wo_entrp">     -2.38063029 </i>
    <i name="e_0_energy">     -2.38143677 </i>
   </energy>
  </scstep>
  <scstep>
   <time name="dav">   14.60    7.32</time>
   <time name="total">   14.60    7.32</time>
   <energy>
    <i name="e_fr_energy">    -14.96278893 </i>
    <i name="e_wo_entrp">    -14.96514077 </i>
    <i name="e_0_energy">    -14.96357288 </i>
   </energy>
  </scstep>
  <scstep>
   <time name="dav">   13.85    6.94</time>
   <time name="total">   13.86    6.94</time>
   <energy>
    <i name="e_fr_energy">    -15.03808312 </i>
    <i name="e_wo_entrp">    -15.04033603 </i>
    <i name="e_0_energy">    -15.03883409 </i>
   </energy>
  </scstep>
  <scstep>
   <time name="dav">   19.24    9.66</time>
   <time name="total">   19.24    9.67</time>
   <energy>
    <i name="e_fr_energy">    -15.03825936 </i>
    <i name="e_wo_entrp">    -15.04050824 </i>
    <i name="e_0_energy">    -15.03900899 </i>
   </energy>
  </scstep>
  <scstep>
   <time name="dav">   14.61    7.35</time>
   <time name="total">   15.02    7.56</time>
   <energy>
    <i name="e_fr_energy">    -15.03825959 </i>
    <i name="e_wo_entrp">    -15.04050844 </i>
    <i name="e_0_energy">    -15.03900921 </i>
   </energy>
  </scstep>
  <scstep>
   <time name="diag">    2.59    1.30</time>
   <time name="diis">    3.34    1.78</time>
   <time name="orth">    0.12    0.06</time>
   <time name="total">    6.51    3.37</time>
   <energy>
    <i name="e_fr_energy">    -14.98771232 </i>
    <i name="e_wo_entrp">    -14.98992245 </i>
    <i name="e_0_energy">    -14.98844903 </i>
   </energy>
  </scstep>
  <scstep>
   <time name="diag">    2.26    1.13</time>
   <time name="diis">    3.30    1.73</time>
   <time name="orth">    0.12    0.06</time>
   <time name="total">    6.12    3.15</time>
   <energy>
    <i name="e_fr_energy">    -14.95080927 </i>
    <i name="e_wo_entrp">    -14.95293506 </i>
    <i name="e_0_energy">    -14.95151787 </i>
   </energy>
  </scstep>
  <scstep>
   <time name="diag">    1.98    0.99</time>
   <time name="diis">    3.40    1.81</time>
   <time name="orth">    0.12    0.06</time>
   <time name="total">    5.94    3.09</time>
   <energy>
    <i name="e_fr_energy">    -14.95078033 </i>
    <i name="e_wo_entrp">    -14.95290389 </i>
    <i name="e_0_energy">    -14.95148818 </i>
   </energy>
  </scstep>
  <scstep>
   <time name="diag">    1.72    0.86</time>
   <time name="diis">    3.39    1.81</time>
   <time name="orth">    0.12    0.06</time>
   <time name="total">    5.65    2.94</time>
   <energy>
    <i name="e_fr_energy">    -14.95078581 </i>
    <i name="e_wo_entrp">    -14.95290810 </i>
    <i name="e_0_energy">    -14.95149324 </i>
   </energy>
  </scstep>
  <scstep>
   <time name="diag">    1.72    0.86</time>
   <time name="diis">    3.38    1.81</time>
   <time name="orth">    0.12    0.06</time>
   <time name="total">    5.63    2.94</time>
   <energy>
    <i name="e_fr_energy">    -14.95078730 </i>
    <i name="e_wo_entrp">    -14.95290970 </i>
    <i name="e_0_energy">    -14.95149476 </i>
   </energy>
  </scstep>
  <scstep>
   <time name="diag">    1.72    0.86</time>
   <time name="diis">    3.32    1.75</time>
   <time name="orth">    0.12    0.06</time>
   <time name="total">    5.58    2.88</time>
   <energy>
    <i name="e_fr_energy">    -14.95078243 </i>
    <i name="e_wo_entrp">    -14.95290476 </i>
    <i name="e_0_energy">    -14.95148988 </i>
   </energy>
  </scstep>
  <scstep>
   <time name="diag">    1.70    0.85</time>
   <time name="diis">    2.61    1.64</time>
   <time name="orth">    0.13    0.07</time>
   <time name="total">    4.49    2.58</time>
   <energy>
    <i name="alphaZ">     -0.77681433 </i>
    <i name="ewald">   -289.48460007 </i>
    <i name="hartreedc">     -0.39957057 </i>
    <i name="XCdc">   -104.90018047 </i>
    <i name="pawpsdc">    520.23734568 </i>
    <i name="pawaedc">   -392.44068300 </i>
    <i name="eentropy">      0.00212236 </i>
    <i name="bandstr">     38.65898063 </i>
    <i name="atom">    214.15261729 </i>
    <i name="e_fr_energy">    -14.95078250 </i>
    <i name="e_wo_entrp">    -14.95290485 </i>
    <i name="e_0_energy">    -14.95148995 </i>
   </energy>
  </scstep>
  <structure>
   <crystal>
    <varray name="basis" >
     <v>       4.10515343       0.00000000       0.00000000 </v>
     <v>      -0.00000000       4.10515343       0.00000000 </v>
     <v>       0.00000000       0.00000000       4.10515343 </v>
    </varray>
    <i name="volume">     69.18121405 </i>
    <varray name="rec_basis" >
     <v>       0.24359625       0.00000000      -0.00000000 </v>
     <v>       0.00000000       0.24359625       0.00000000 </v>
     <v>      -0.00000000      -0.00000000       0.24359625 </v>
    </varray>
   </crystal>
   <varray name="positions" >
    <v>       0.00000000       0.00000000       0.00000000 </v>
    <v>       0.00000000       0.50000000       0.50000000 </v>
    <v>       0.50000000       0.00000000       0.50000000 </v>
    <v>       0.50000000       0.50000000       0.00000000 </v>
   </varray>
  </structure>
  <varray name="forces" >
   <v>       0.00000000       0.00000000       0.00000000 </v>
   <v>      -0.00000000       0.00000000       0.00000000 </v>
   <v>       0.00000000      -0.00000000      -0.00000000 </v>
   <v>      -0.00000000      -0.00000000      -0.00000000 </v>
  </varray>
  <varray name="stress" >
   <v>     -34.07047537       0.00000000      -0.00000000 </v>
   <v>      -0.00000000     -34.07047537       0.00000000 </v>
   <v>       0.00000000       0.00000000     -34.07047537 </v>
  </varray>
  <energy>
   <i name="e_fr_energy">    -14.95078250 </i>
   <i name="e_wo_entrp">    -14.95290485 </i>
   <i name="e_0_energy">    -14.95148995 </i>
  </energy>
  <time name="totalsc">  122.33   62.44</time>
  <eigenvalues>
   <array>
    <dimension dim="1">band</dimension>
    <dimension dim="2">kpoint</dimension>
    <dimension dim="3">spin</dimension>
    <field>eigene</field>
    <field>occ</field>
    <set>
     <set comment="spin 1">
      <set comment="kpoint 1">
       <r>   -3.2789    1.0000 </r>
       <r>    4.5917    1.0000 </r>
       <r>    4.5917    1.0000 </r>
       <r>    4.5917    1.0000 </r>
       <r>    6.0678    1.0000 </r>
       <r>    6.0678    1.0000 </r>
       <r>    6.0678    1.0000 </r>
       <r>   12.2279   -0.0000 </r>
       <r>   12.2279   -0.0000 </r>
       <r>   12.2279   -0.0000 </r>
       <r>   12.9114   -0.0000 </r>
       <r>   12.9114   -0.0000 </r>
       <r>   12.9115   -0.0000 </r>
       <r>   13.3636    0.0000 </r>
      </set>
      <set comment="kpoint 2">
       <r>   -3.2350    1.0000 </r>
       <r>    3.9700    1.0000 </r>
       <r>    4.6324    1.0000 </r>
       <r>    4.6324    1.0000 </r>
       <r>    6.1104    1.0000 </r>
       <r>    6.1104    1.0000 </r>
       <r>    6.7661    1.0000 </r>
       <r>   11.5230   -0.0000 </r>
       <r>   11.5230   -0.0000 </r>
       <r>   12.2685   -0.0000 </r>
       <r>   12.6570   -0.0000 </r>
       <r>   12.6570   -0.0000 </r>
       <r>   12.9490   -0.0000 </r>
       <r>   13.4040    0.0000 </r>
      </set>
      <set comment="kpoint 3">
       <r>   -3.1472    1.0000 </r>
       <r>    3.2604    1.0000 </r>
       <r>    4.7138    1.0000 </r>
       <r>    4.7138    1.0000 </r>
       <r>    6.1955    1.0000 </r>
       <r>    6.1955    1.0000 </r>
       <r>    7.6287    0.1344 </r>
       <r>   10.8074   -0.0000 </r>
       <r>   10.8074   -0.0000 </r>
       <r>   12.1630   -0.0000 </r>
       <r>   12.1630   -0.0000 </r>
       <r>   12.3497   -0.0000 </r>
       <r>   13.0243    0.0000 </r>
       <r>   13.4850    0.0000 </r>
      </set>
      <set comment="kpoint 4">
       <r>   -3.0156    1.0000 </r>
       <r>    2.5617    1.0000 </r>
       <r>    4.8359    1.0000 </r>
       <r>    4.8359    1.0000 </r>
       <r>    6.3228    1.0000 </r>
       <r>    6.3228    1.0000 </r>
       <r>    8.5571   -0.0000 </r>
       <r>   10.1226   -0.0000 </r>
       <r>   10.1226   -0.0000 </r>
       <r>   11.5973   -0.0000 </r>
       <r>   11.5973   -0.0000 </r>
       <r>   12.4715   -0.0000 </r>
       <r>   13.1372    0.0000 </r>
       <r>   13.6064    0.0000 </r>
      </set>
      <set comment="kpoint 5">
       <r>   -2.8403    1.0000 </r>
       <r>    1.8926    1.0000 </r>
       <r>    4.9986    1.0000 </r>
       <r>    4.9986    1.0000 </r>
       <r>    6.4918    1.0000 </r>
       <r>    6.4918    1.0000 </r>
       <r>    9.4752   -0.0000 </r>
       <r>    9.4752   -0.0000 </r>
       <r>    9.5321   -0.0000 </r>
       <r>   11.0172   -0.0000 </r>
       <r>   11.0172   -0.0000 </r>
       <r>   12.6336   -0.0000 </r>
       <r>   13.2878    0.0000 </r>
       <r>   13.7685    0.0000 </r>
      </set>
      <set comment="kpoint 6">
       <r>   -2.6215    1.0000 </r>
       <r>    1.2589    1.0000 </r>
       <r>    5.2021    1.0000 </r>
       <r>    5.2021    1.0000 </r>
       <r>    6.7015    1.0000 </r>
       <r>    6.7015    1.0000 </r>
       <r>    8.8672   -0.0000 </r>
       <r>    8.8672   -0.0000 </r>
       <r>   10.4481   -0.0000 </r>
       <r>   10.4481   -0.0000 </r>
       <r>   10.5476   -0.0000 </r>
       <r>   12.8359   -0.0000 </r>
       <r>   13.4760    0.0000 </r>
       <r>   13.9711    0.0000 </r>
      </set>
      <set comment="kpoint 7">
       <r>   -2.3593    1.0000 </r>
       <r>    0.6633    1.0000 </r>
       <r>    5.4461    1.0000 </r>
       <r>    5.4461    1.0000 </r>
       <r>    6.9502    1.0002 </r>
       <r>    6.9502    1.0002 </r>
       <r>    8.3000   -0.0000 </r>
       <r>    8.3000   -0.0000 </r>
       <r>    9.9032   -0.0000 </r>
       <r>    9.9032   -0.0000 </r>
       <r>   11.6004   -0.0000 </r>
       <r>   13.0782    0.0000 </r>
       <r>   13.7020    0.0000 </r>
       <r>   14.2145    0.0000 </r>
      </set>
      <set comment="kpoint 8">
       <r>   -2.0541    1.0000 </r>
       <r>    0.1073    1.0000 </r>
       <r>    5.7307    1.0000 </r>
       <r>    5.7307    1.0000 </r>
       <r>    7.2312    1.0278 </r>
       <r>    7.2312    1.0278 </r>
       <r>    7.7775   -0.0354 </r>
       <r>    7.7775   -0.0354 </r>
       <r>    9.3915   -0.0000 </r>
       <r>    9.3915   -0.0000 </r>
       <r>   12.6880   -0.0000 </r>
       <r>   13.3606    0.0000 </r>
       <r>   13.9657    0.0000 </r>
       <r>   14.4985    0.0000 </r>
      </set>
      <set comment="kpoint 9">
       <r>   -1.7060    1.0000 </r>
       <r>   -0.4083    1.0000 </r>
       <r>    6.0558    1.0000 </r>
       <r>    6.0558    1.0000 </r>
       <r>    7.2612    1.0336 </r>
       <r>    7.2612    1.0336 </r>
       <r>    7.5748    0.3171 </r>
       <r>    7.5748    0.3171 </r>
       <r>    8.9252   -0.0000 </r>
       <r>    8.9252   -0.0000 </r>
       <r>   13.6733    0.0000 </r>
       <r>   13.8178    0.0000 </r>
       <r>   14.2671    0.0000 </r>
       <r>   14.8330    0.0000 </r>
      </set>
      <set comment="kpoint 10">
       <r>   -1.3154    1.0000 </r>
       <r>   -0.8827    1.0000 </r>
       <r>    6.4205    1.0000 </r>
       <r>    6.4205    1.0000 </r>
       <r>    6.8276    1.0000 </r>
       <r>    6.8276    1.0000 </r>
       <r>    7.8593   -0.0210 </r>
       <r>    7.8593   -0.0210 </r>
       <r>    8.5523   -0.0000 </r>
       <r>    8.5523   -0.0000 </r>
       <r>   14.0386    0.0000 </r>
       <r>   14.4368    0.0000 </r>
       <r>   14.6061    0.0000 </r>
       <r>   14.9717    0.0000 </r>
      </set>
      <set comment="kpoint 11">
       <r>   -3.1911    1.0000 </r>
       <r>    4.0115    1.0000 </r>
       <r>    4.0115    1.0000 </r>
       <r>    4.6731    1.0000 </r>
       <r>    6.1529    1.0000 </r>
       <r>    6.8078    1.0000 </r>
       <r>    6.8078    1.0000 </r>
       <r>   10.9035   -0.0000 </r>
       <r>   11.5636   -0.0000 </r>
       <r>   11.5636   -0.0000 </r>
       <r>   12.6952   -0.0000 </r>
       <r>   12.6952   -0.0000 </r>
       <r>   12.9871   -0.0000 </r>
       <r>   14.0864    0.0000 </r>
      </set>
      <set comment="kpoint 12">
       <r>   -3.1033    1.0000 </r>
       <r>    3.3023    1.0000 </r>
       <r>    4.0943    1.0000 </r>
       <r>    4.7545    1.0000 </r>
       <r>    6.2378    1.0000 </r>
       <r>    6.8913    1.0000 </r>
       <r>    7.6700    0.0409 </r>
       <r>   10.2172   -0.0000 </r>
       <r>   10.8480   -0.0000 </r>
       <r>   11.6447   -0.0000 </r>
       <r>   12.2021   -0.0000 </r>
       <r>   12.7341   -0.0000 </r>
       <r>   12.7718   -0.0000 </r>
       <r>   14.2001    0.0000 </r>
      </set>
      <set comment="kpoint 13">
       <r>   -2.9718    1.0000 </r>
       <r>    2.6039    1.0000 </r>
       <r>    4.2185    1.0000 </r>
       <r>    4.8765    1.0000 </r>
       <r>    6.3647    1.0000 </r>
       <r>    7.0162    1.0008 </r>
       <r>    8.5977   -0.0000 </r>
       <r>    9.5458   -0.0000 </r>
       <r>   10.1633   -0.0000 </r>
       <r>   11.6372   -0.0000 </r>
       <r>   11.7664   -0.0000 </r>
       <r>   12.2147   -0.0000 </r>
       <r>   12.8866   -0.0000 </r>
       <r>   14.3213    0.0000 </r>
      </set>
      <set comment="kpoint 14">
       <r>   -2.7965    1.0000 </r>
       <r>    1.9349    1.0000 </r>
       <r>    4.3840    1.0000 </r>
       <r>    5.0393    1.0000 </r>
       <r>    6.5329    1.0000 </r>
       <r>    7.1818    1.0167 </r>
       <r>    8.9052   -0.0000 </r>
       <r>    9.5161   -0.0000 </r>
       <r>    9.5720   -0.0000 </r>
       <r>   11.0580   -0.0000 </r>
       <r>   11.6473   -0.0000 </r>
       <r>   11.9286   -0.0000 </r>
       <r>   13.0397    0.0000 </r>
       <r>   14.4829    0.0000 </r>
      </set>
      <set comment="kpoint 15">
       <r>   -2.5778    1.0000 </r>
       <r>    1.3015    1.0000 </r>
       <r>    4.5907    1.0000 </r>
       <r>    5.2427    1.0000 </r>
       <r>    6.7404    1.0000 </r>
       <r>    7.3871    0.9655 </r>
       <r>    8.3021   -0.0000 </r>
       <r>    8.9085   -0.0000 </r>
       <r>   10.4900   -0.0000 </r>
       <r>   10.5863   -0.0000 </r>
       <r>   11.0832   -0.0000 </r>
       <r>   12.1313   -0.0000 </r>
       <r>   13.2311    0.0000 </r>
       <r>   14.6849    0.0000 </r>
      </set>
      <set comment="kpoint 16">
       <r>   -2.3157    1.0000 </r>
       <r>    0.7061    1.0000 </r>
       <r>    4.8384    1.0000 </r>
       <r>    5.4867    1.0000 </r>
       <r>    6.9796    1.0003 </r>
       <r>    7.6284    0.1355 </r>
       <r>    7.7456   -0.0313 </r>
       <r>    8.3431   -0.0000 </r>
       <r>    9.9472   -0.0000 </r>
       <r>   10.5408   -0.0000 </r>
       <r>   11.6366   -0.0000 </r>
       <r>   12.3752   -0.0000 </r>
       <r>   13.4608    0.0000 </r>
       <r>   14.9272    0.0000 </r>
      </set>
      <set comment="kpoint 17">
       <r>   -2.0105    1.0000 </r>
       <r>    0.1502    1.0000 </r>
       <r>    5.1269    1.0000 </r>
       <r>    5.7711    1.0000 </r>
       <r>    7.0955    1.0044 </r>
       <r>    7.3905    0.9596 </r>
       <r>    7.7759   -0.0355 </r>
       <r>    7.9448   -0.0063 </r>
       <r>    9.4410   -0.0000 </r>
       <r>   10.0290   -0.0000 </r>
       <r>   12.6321   -0.0000 </r>
       <r>   12.7477   -0.0000 </r>
       <r>   13.7297    0.0000 </r>
       <r>   14.6543    0.0000 </r>
      </set>
      <set comment="kpoint 18">
       <r>   -1.6625    1.0000 </r>
       <r>   -0.3652    1.0000 </r>
       <r>    5.4558    1.0000 </r>
       <r>    6.0951    1.0000 </r>
       <r>    6.6790    1.0000 </r>
       <r>    7.3156    1.0312 </r>
       <r>    7.6443    0.0941 </r>
       <r>    8.2038   -0.0000 </r>
       <r>    8.9994   -0.0000 </r>
       <r>    9.5550   -0.0000 </r>
       <r>   12.9743   -0.0000 </r>
       <r>   13.8305    0.0000 </r>
       <r>   14.0523    0.0000 </r>
       <r>   14.1772    0.0000 </r>
      </set>
      <set comment="kpoint 19">
       <r>   -1.2721    1.0000 </r>
       <r>   -0.8395    1.0000 </r>
       <r>    5.8245    1.0000 </r>
       <r>    6.2280    1.0000 </r>
       <r>    6.4693    1.0000 </r>
       <r>    6.8709    1.0000 </r>
       <r>    7.9881   -0.0028 </r>
       <r>    8.2902   -0.0000 </r>
       <r>    8.8315   -0.0000 </r>
       <r>    9.1312   -0.0000 </r>
       <r>   13.3369    0.0000 </r>
       <r>   13.7379    0.0000 </r>
       <r>   14.3653    0.0000 </r>
       <r>   14.7484    0.0000 </r>
      </set>
      <set comment="kpoint 20">
       <r>   -3.0156    1.0000 </r>
       <r>    3.3860    1.0000 </r>
       <r>    3.3860    1.0000 </r>
       <r>    4.8358    1.0000 </r>
       <r>    6.3223    1.0000 </r>
       <r>    7.7522   -0.0331 </r>
       <r>    7.7522   -0.0331 </r>
       <r>    9.5403   -0.0000 </r>
       <r>   10.9293   -0.0000 </r>
       <r>   10.9293   -0.0000 </r>
       <r>   12.2803   -0.0000 </r>
       <r>   12.2803   -0.0000 </r>
       <r>   13.1385    0.0000 </r>
       <r>   14.5164    0.0000 </r>
      </set>
      <set comment="kpoint 21">
       <r>   -2.8841    1.0000 </r>
       <r>    2.6881    1.0000 </r>
       <r>    3.5114    1.0000 </r>
       <r>    4.9579    1.0000 </r>
       <r>    6.4481    1.0000 </r>
       <r>    7.8751   -0.0175 </r>
       <r>    8.6786   -0.0000 </r>
       <r>    8.8727   -0.0000 </r>
       <r>   10.2448   -0.0000 </r>
       <r>   11.0512   -0.0000 </r>
       <r>   11.7169   -0.0000 </r>
       <r>   12.3975   -0.0000 </r>
       <r>   12.9202   -0.0000 </r>
       <r>   15.0407    0.0000 </r>
      </set>
      <set comment="kpoint 22">
       <r>   -2.7090    1.0000 </r>
       <r>    2.0197    1.0000 </r>
       <r>    3.6786    1.0000 </r>
       <r>    5.1206    1.0000 </r>
       <r>    6.6136    1.0000 </r>
       <r>    8.0376   -0.0010 </r>
       <r>    8.2351   -0.0000 </r>
       <r>    9.5980   -0.0000 </r>
       <r>    9.6511   -0.0000 </r>
       <r>   11.1396   -0.0000 </r>
       <r>   11.2140   -0.0000 </r>
       <r>   12.4253   -0.0000 </r>
       <r>   12.5539   -0.0000 </r>
       <r>   15.3503    0.0000 </r>
      </set>
      <set comment="kpoint 23">
       <r>   -2.4904    1.0000 </r>
       <r>    1.3866    1.0000 </r>
       <r>    3.8872    1.0000 </r>
       <r>    5.3239    1.0000 </r>
       <r>    6.8109    1.0000 </r>
       <r>    7.6415    0.1010 </r>
       <r>    8.2368   -0.0000 </r>
       <r>    8.9922   -0.0000 </r>
       <r>   10.5746   -0.0000 </r>
       <r>   10.6618   -0.0000 </r>
       <r>   11.4184   -0.0000 </r>
       <r>   11.8860   -0.0000 </r>
       <r>   12.7496   -0.0000 </r>
       <r>   15.0233    0.0000 </r>
      </set>
      <set comment="kpoint 24">
       <r>   -2.2285    1.0000 </r>
       <r>    0.7916    1.0000 </r>
       <r>    4.1372    1.0000 </r>
       <r>    5.5677    1.0000 </r>
       <r>    6.9100    1.0001 </r>
       <r>    7.2241    1.0262 </r>
       <r>    8.3780   -0.0000 </r>
       <r>    8.5187   -0.0000 </r>
       <r>   10.0380   -0.0000 </r>
       <r>   11.3550   -0.0000 </r>
       <r>   11.6257   -0.0000 </r>
       <r>   11.7448   -0.0000 </r>
       <r>   12.9861   -0.0000 </r>
       <r>   14.4681    0.0000 </r>
      </set>
      <set comment="kpoint 25">
       <r>   -1.9235    1.0000 </r>
       <r>    0.2360    1.0000 </r>
       <r>    4.4284    1.0000 </r>
       <r>    5.8510    1.0000 </r>
       <r>    6.4812    1.0000 </r>
       <r>    7.4142    0.9113 </r>
       <r>    7.8850   -0.0155 </r>
       <r>    8.7345   -0.0000 </r>
       <r>    9.5558   -0.0000 </r>
       <r>   10.8490   -0.0000 </r>
       <r>   11.9374   -0.0000 </r>
       <r>   12.7843   -0.0000 </r>
       <r>   13.2750    0.0000 </r>
       <r>   13.9499    0.0000 </r>
      </set>
      <set comment="kpoint 26">
       <r>   -1.5757    1.0000 </r>
       <r>   -0.2791    1.0000 </r>
       <r>    4.7604    1.0000 </r>
       <r>    5.9874    1.0000 </r>
       <r>    6.1881    1.0000 </r>
       <r>    7.3992    0.9434 </r>
       <r>    7.7339   -0.0269 </r>
       <r>    8.8170   -0.0000 </r>
       <r>    9.3130   -0.0000 </r>
       <r>   10.3761   -0.0000 </r>
       <r>   12.2620   -0.0000 </r>
       <r>   13.4697    0.0000 </r>
       <r>   13.5217    0.0000 </r>
       <r>   13.9636    0.0000 </r>
      </set>
      <set comment="kpoint 27">
       <r>   -1.1854    1.0000 </r>
       <r>   -0.7531    1.0000 </r>
       <r>    5.1326    1.0000 </r>
       <r>    5.5441    1.0000 </r>
       <r>    6.5470    1.0000 </r>
       <r>    6.9528    1.0002 </r>
       <r>    8.0969   -0.0002 </r>
       <r>    8.4861   -0.0000 </r>
       <r>    9.5601   -0.0000 </r>
       <r>    9.9423   -0.0000 </r>
       <r>   12.6254   -0.0000 </r>
       <r>   13.0281    0.0000 </r>
       <r>   13.8890    0.0000 </r>
       <r>   14.2761    0.0000 </r>
      </set>
      <set comment="kpoint 28">
       <r>   -2.7528    1.0000 </r>
       <r>    2.8145    1.0000 </r>
       <r>    2.8145    1.0000 </r>
       <r>    5.0799    1.0000 </r>
       <r>    6.5713    1.0000 </r>
       <r>    8.2074   -0.0000 </r>
       <r>    8.7991   -0.0000 </r>
       <r>    8.7991   -0.0000 </r>
       <r>   10.3673   -0.0000 </r>
       <r>   10.3673   -0.0000 </r>
       <r>   11.8368   -0.0000 </r>
       <r>   11.8368   -0.0000 </r>
       <r>   13.3658    0.0000 </r>
       <r>   14.8776    0.0000 </r>
      </set>
      <set comment="kpoint 29">
       <r>   -2.5778    1.0000 </r>
       <r>    2.1467    1.0000 </r>
       <r>    2.9827    1.0000 </r>
       <r>    5.2425    1.0000 </r>
       <r>    6.7264    1.0000 </r>
       <r>    7.5787    0.3019 </r>
       <r>    8.9564   -0.0000 </r>
       <r>    9.7223   -0.0000 </r>
       <r>    9.7671   -0.0000 </r>
       <r>   10.5318   -0.0000 </r>
       <r>   11.2629   -0.0000 </r>
       <r>   11.9971   -0.0000 </r>
       <r>   13.1886    0.0000 </r>
       <r>   14.9482    0.0000 </r>
      </set>
      <set comment="kpoint 30">
       <r>   -2.3594    1.0000 </r>
       <r>    1.5142    1.0000 </r>
       <r>    3.1928    1.0000 </r>
       <r>    5.4456    1.0000 </r>
       <r>    6.7924    1.0000 </r>
       <r>    7.1146    1.0061 </r>
       <r>    9.0663   -0.0000 </r>
       <r>    9.1986   -0.0000 </r>
       <r>   10.6925   -0.0000 </r>
       <r>   10.7044   -0.0000 </r>
       <r>   10.8163   -0.0000 </r>
       <r>   12.1998   -0.0000 </r>
       <r>   12.7312   -0.0000 </r>
       <r>   14.3524    0.0000 </r>
      </set>
      <set comment="kpoint 31">
       <r>   -2.0977    1.0000 </r>
       <r>    0.9197    1.0000 </r>
       <r>    3.4445    1.0000 </r>
       <r>    5.6883    1.0000 </r>
       <r>    6.3352    1.0000 </r>
       <r>    7.2526    1.0322 </r>
       <r>    8.5355   -0.0000 </r>
       <r>    9.3727   -0.0000 </r>
       <r>   10.1909   -0.0000 </r>
       <r>   10.9697   -0.0000 </r>
       <r>   11.8105   -0.0000 </r>
       <r>   12.2289   -0.0000 </r>
       <r>   12.4570   -0.0000 </r>
       <r>   13.7937    0.0000 </r>
      </set>
      <set comment="kpoint 32">
       <r>   -1.7930    1.0000 </r>
       <r>    0.3647    1.0000 </r>
       <r>    3.7376    1.0000 </r>
       <r>    5.7998    1.0000 </r>
       <r>    5.9861    1.0000 </r>
       <r>    7.5330    0.4889 </r>
       <r>    8.0092   -0.0018 </r>
       <r>    9.4284   -0.0000 </r>
       <r>    9.9003   -0.0000 </r>
       <r>   11.2551   -0.0000 </r>
       <r>   11.7364   -0.0000 </r>
       <r>   12.6171   -0.0000 </r>
       <r>   13.0070    0.0000 </r>
       <r>   13.2729    0.0000 </r>
      </set>
      <set comment="kpoint 33">
       <r>   -1.4455    1.0000 </r>
       <r>   -0.1500    1.0000 </r>
       <r>    4.0719    1.0000 </r>
       <r>    5.3159    1.0000 </r>
       <r>    6.3033    1.0000 </r>
       <r>    7.5220    0.5355 </r>
       <r>    7.8619   -0.0204 </r>
       <r>    9.0631   -0.0000 </r>
       <r>   10.1042   -0.0000 </r>
       <r>   11.2701   -0.0000 </r>
       <r>   11.5795   -0.0000 </r>
       <r>   12.7905   -0.0000 </r>
       <r>   12.9816   -0.0000 </r>
       <r>   14.0703    0.0000 </r>
      </set>
      <set comment="kpoint 34">
       <r>   -1.0556    1.0000 </r>
       <r>   -0.6236    1.0000 </r>
       <r>    4.4469    1.0000 </r>
       <r>    4.8620    1.0000 </r>
       <r>    6.6686    1.0000 </r>
       <r>    7.0750    1.0030 </r>
       <r>    8.2309   -0.0000 </r>
       <r>    8.6353   -0.0000 </r>
       <r>   10.4451   -0.0000 </r>
       <r>   10.8378   -0.0000 </r>
       <r>   11.9435   -0.0000 </r>
       <r>   12.3473   -0.0000 </r>
       <r>   13.3403    0.0000 </r>
       <r>   13.7300    0.0000 </r>
      </set>
      <set comment="kpoint 35">
       <r>   -2.4030    1.0000 </r>
       <r>    2.3159    1.0000 </r>
       <r>    2.3159    1.0000 </r>
       <r>    5.4049    1.0000 </r>
       <r>    6.7527    1.0000 </r>
       <r>    7.0770    1.0031 </r>
       <r>    9.8385   -0.0000 </r>
       <r>    9.8385   -0.0000 </r>
       <r>    9.9664   -0.0000 </r>
       <r>    9.9664   -0.0000 </r>
       <r>   11.4300   -0.0000 </r>
       <r>   11.4300   -0.0000 </r>
       <r>   13.6689    0.0000 </r>
       <r>   14.3134    0.0000 </r>
      </set>
      <set comment="kpoint 36">
       <r>   -2.1849    1.0000 </r>
       <r>    1.6842    1.0000 </r>
       <r>    2.5271    1.0000 </r>
       <r>    5.6069    1.0000 </r>
       <r>    6.2599    1.0000 </r>
       <r>    7.1705    1.0144 </r>
       <r>    9.2669   -0.0000 </r>
       <r>   10.0786   -0.0000 </r>
       <r>   10.1017   -0.0000 </r>
       <r>   10.8939   -0.0000 </r>
       <r>   10.9153   -0.0000 </r>
       <r>   11.6542   -0.0000 </r>
       <r>   13.5357    0.0000 </r>
       <r>   13.7148    0.0000 </r>
      </set>
      <set comment="kpoint 37">
       <r>   -1.9235    1.0000 </r>
       <r>    1.0904    1.0000 </r>
       <r>    2.7802    1.0000 </r>
       <r>    5.6839    1.0000 </r>
       <r>    5.8646    1.0000 </r>
       <r>    7.4098    0.9214 </r>
       <r>    8.7003   -0.0000 </r>
       <r>   10.1204   -0.0000 </r>
       <r>   10.3241   -0.0000 </r>
       <r>   10.5707   -0.0000 </r>
       <r>   11.7266   -0.0000 </r>
       <r>   12.1270   -0.0000 </r>
       <r>   13.1207    0.0000 </r>
       <r>   13.1536    0.0000 </r>
      </set>
      <set comment="kpoint 38">
       <r>   -1.6191    1.0000 </r>
       <r>    0.5360    1.0000 </r>
       <r>    3.0749    1.0000 </r>
       <r>    5.1593    1.0000 </r>
       <r>    6.1407    1.0000 </r>
       <r>    7.6990   -0.0002 </r>
       <r>    8.1726   -0.0000 </r>
       <r>    9.7166   -0.0000 </r>
       <r>   10.6087   -0.0000 </r>
       <r>   10.7393   -0.0000 </r>
       <r>   12.0876   -0.0000 </r>
       <r>   12.6308   -0.0000 </r>
       <r>   12.6593   -0.0000 </r>
       <r>   13.1241    0.0000 </r>
      </set>
      <set comment="kpoint 39">
       <r>   -1.2720    1.0000 </r>
       <r>    0.0219    1.0000 </r>
       <r>    3.4110    1.0000 </r>
       <r>    4.6634    1.0000 </r>
       <r>    6.4653    1.0000 </r>
       <r>    7.6850    0.0172 </r>
       <r>    8.0305   -0.0012 </r>
       <r>    9.2523   -0.0000 </r>
       <r>   10.9333   -0.0000 </r>
       <r>   11.0399   -0.0000 </r>
       <r>   12.1469   -0.0000 </r>
       <r>   12.2075   -0.0000 </r>
       <r>   12.4170   -0.0000 </r>
       <r>   13.5941    0.0000 </r>
      </set>
      <set comment="kpoint 40">
       <r>   -0.8826    1.0000 </r>
       <r>   -0.4511    1.0000 </r>
       <r>    3.7882    1.0000 </r>
       <r>    4.2059    1.0000 </r>
       <r>    6.8312    1.0000 </r>
       <r>    7.2378    1.0293 </r>
       <r>    8.4017   -0.0000 </r>
       <r>    8.8103   -0.0000 </r>
       <r>   11.2980   -0.0000 </r>
       <r>   11.3913   -0.0000 </r>
       <r>   11.7026   -0.0000 </r>
       <r>   11.7824   -0.0000 </r>
       <r>   12.7752   -0.0000 </r>
       <r>   13.1674    0.0000 </r>
      </set>
      <set comment="kpoint 41">
       <r>   -1.9670    1.0000 </r>
       <r>    1.8964    1.0000 </r>
       <r>    1.8964    1.0000 </r>
       <r>    5.6449    1.0000 </r>
       <r>    5.8241    1.0000 </r>
       <r>    7.3684    0.9925 </r>
       <r>    9.4721   -0.0000 </r>
       <r>    9.4721   -0.0000 </r>
       <r>   10.8889   -0.0000 </r>
       <r>   10.8889   -0.0000 </r>
       <r>   11.3147   -0.0000 </r>
       <r>   11.3147   -0.0000 </r>
       <r>   13.1137    0.0000 </r>
       <r>   14.0480    0.0000 </r>
      </set>
      <set comment="kpoint 42">
       <r>   -1.7060    1.0000 </r>
       <r>    1.3035    1.0000 </r>
       <r>    2.1507    1.0000 </r>
       <r>    5.0800    1.0000 </r>
       <r>    6.0593    1.0000 </r>
       <r>    7.6166    0.1701 </r>
       <r>    8.9043   -0.0000 </r>
       <r>    9.7165   -0.0000 </r>
       <r>   10.4427   -0.0000 </r>
       <r>   11.2361   -0.0000 </r>
       <r>   11.4568   -0.0000 </r>
       <r>   12.2525   -0.0000 </r>
       <r>   12.5505   -0.0000 </r>
       <r>   13.9610    0.0000 </r>
      </set>
      <set comment="kpoint 43">
       <r>   -1.4021    1.0000 </r>
       <r>    0.7499    1.0000 </r>
       <r>    2.4469    1.0000 </r>
       <r>    4.5428    1.0000 </r>
       <r>    6.3433    1.0000 </r>
       <r>    7.9079   -0.0113 </r>
       <r>    8.3762   -0.0000 </r>
       <r>    9.9442   -0.0000 </r>
       <r>   10.0011   -0.0000 </r>
       <r>   11.5342   -0.0000 </r>
       <r>   11.7185   -0.0000 </r>
       <r>   12.0262   -0.0000 </r>
       <r>   13.3120    0.0000 </r>
       <r>   13.5061    0.0000 </r>
      </set>
      <set comment="kpoint 44">
       <r>   -1.0555    1.0000 </r>
       <r>    0.2366    1.0000 </r>
       <r>    2.7846    1.0000 </r>
       <r>    4.0434    1.0000 </r>
       <r>    6.6685    1.0000 </r>
       <r>    7.8885   -0.0148 </r>
       <r>    8.2402   -0.0000 </r>
       <r>    9.4670   -0.0000 </r>
       <r>   10.3259   -0.0000 </r>
       <r>   11.5413   -0.0000 </r>
       <r>   11.8592   -0.0000 </r>
       <r>   12.0289   -0.0000 </r>
       <r>   13.0428    0.0000 </r>
       <r>   13.1716    0.0000 </r>
      </set>
      <set comment="kpoint 45">
       <r>   -0.6666    1.0000 </r>
       <r>   -0.2358    1.0000 </r>
       <r>    3.1635    1.0000 </r>
       <r>    3.5833    1.0000 </r>
       <r>    7.0345    1.0013 </r>
       <r>    7.4412    0.8389 </r>
       <r>    8.6120   -0.0000 </r>
       <r>    9.0217   -0.0000 </r>
       <r>   10.6909   -0.0000 </r>
       <r>   11.0961   -0.0000 </r>
       <r>   12.2185   -0.0000 </r>
       <r>   12.3784   -0.0000 </r>
       <r>   12.6132   -0.0000 </r>
       <r>   12.7618   -0.0000 </r>
      </set>
      <set comment="kpoint 46">
       <r>   -1.4455    1.0000 </r>
       <r>    1.5589    1.0000 </r>
       <r>    1.5589    1.0000 </r>
       <r>    4.5024    1.0000 </r>
       <r>    6.3026    1.0000 </r>
       <r>    7.8668   -0.0193 </r>
       <r>    9.1484   -0.0000 </r>
       <r>    9.1484   -0.0000 </r>
       <r>   10.7068   -0.0000 </r>
       <r>   10.7068   -0.0000 </r>
       <r>   11.9859   -0.0000 </r>
       <r>   12.4766   -0.0000 </r>
       <r>   12.4766   -0.0000 </r>
       <r>   13.4756    0.0000 </r>
      </set>
      <set comment="kpoint 47">
       <r>   -1.1421    1.0000 </r>
       <r>    1.0062    1.0000 </r>
       <r>    1.8563    1.0000 </r>
       <r>    3.9617    1.0000 </r>
       <r>    6.5872    1.0000 </r>
       <r>    8.1585   -0.0000 </r>
       <r>    8.6203   -0.0000 </r>
       <r>    9.4330   -0.0000 </r>
       <r>   10.1974   -0.0000 </r>
       <r>   10.9968   -0.0000 </r>
       <r>   11.4605   -0.0000 </r>
       <r>   12.7466   -0.0000 </r>
       <r>   12.9783   -0.0000 </r>
       <r>   13.5419    0.0000 </r>
      </set>
      <set comment="kpoint 48">
       <r>   -0.7961    1.0000 </r>
       <r>    0.4938    1.0000 </r>
       <r>    2.1954    1.0000 </r>
       <r>    3.4597    1.0000 </r>
       <r>    6.9125    1.0001 </r>
       <r>    8.1326   -0.0001 </r>
       <r>    8.4907   -0.0000 </r>
       <r>    9.7176   -0.0000 </r>
       <r>    9.7580   -0.0000 </r>
       <r>   10.9748   -0.0000 </r>
       <r>   11.3216   -0.0000 </r>
       <r>   12.5122   -0.0000 </r>
       <r>   13.0547    0.0000 </r>
       <r>   14.1382    0.0000 </r>
      </set>
      <set comment="kpoint 49">
       <r>   -0.4079    1.0000 </r>
       <r>    0.0222    1.0000 </r>
       <r>    2.5760    1.0000 </r>
       <r>    2.9976    1.0000 </r>
       <r>    7.2786    1.0353 </r>
       <r>    7.6853    0.0167 </r>
       <r>    8.8622   -0.0000 </r>
       <r>    9.2717   -0.0000 </r>
       <r>   10.1233   -0.0000 </r>
       <r>   10.5290   -0.0000 </r>
       <r>   11.6826   -0.0000 </r>
       <r>   12.0798   -0.0000 </r>
       <r>   13.3961    0.0000 </r>
       <r>   13.7633    0.0000 </r>
      </set>
      <set comment="kpoint 50">
       <r>   -0.8393    1.0000 </r>
       <r>    1.3047    1.0000 </r>
       <r>    1.3047    1.0000 </r>
       <r>    3.4184    1.0000 </r>
       <r>    6.8718    1.0000 </r>
       <r>    8.4500   -0.0000 </r>
       <r>    8.9050   -0.0000 </r>
       <r>    8.9050   -0.0000 </r>
       <r>   10.4858   -0.0000 </r>
       <r>   10.4858   -0.0000 </r>
       <r>   10.9343   -0.0000 </r>
       <r>   12.4780   -0.0000 </r>
       <r>   13.8088    0.0000 </r>
       <r>   13.8088    0.0000 </r>
      </set>
      <set comment="kpoint 51">
       <r>   -0.4940    1.0000 </r>
       <r>    0.7933    1.0000 </r>
       <r>    1.6452    1.0000 </r>
       <r>    2.9144    1.0000 </r>
       <r>    7.1973    1.0201 </r>
       <r>    8.4173   -0.0000 </r>
       <r>    8.7816   -0.0000 </r>
       <r>    9.2301   -0.0000 </r>
       <r>   10.0062   -0.0000 </r>
       <r>   10.4480   -0.0000 </r>
       <r>   10.8114   -0.0000 </r>
       <r>   12.0090   -0.0000 </r>
       <r>   14.1082    0.0000 </r>
       <r>   14.8982    0.0000 </r>
      </set>
      <set comment="kpoint 52">
       <r>   -0.1066    1.0000 </r>
       <r>    0.3227    1.0000 </r>
       <r>    2.0272    1.0000 </r>
       <r>    2.4504    1.0000 </r>
       <r>    7.5634    0.3625 </r>
       <r>    7.9700   -0.0040 </r>
       <r>    9.1523   -0.0000 </r>
       <r>    9.5610   -0.0000 </r>
       <r>    9.5957   -0.0000 </r>
       <r>   10.0017   -0.0000 </r>
       <r>   11.1744   -0.0000 </r>
       <r>   11.5739   -0.0000 </r>
       <r>   14.4325    0.0000 </r>
       <r>   14.7629    0.0000 </r>
      </set>
      <set comment="kpoint 53">
       <r>   -0.1495    1.0000 </r>
       <r>    1.1349    1.0000 </r>
       <r>    1.1349    1.0000 </r>
       <r>    2.4085    1.0000 </r>
       <r>    7.5227    0.5326 </r>
       <r>    8.7425   -0.0000 </r>
       <r>    8.7425   -0.0000 </r>
       <r>    9.1122   -0.0000 </r>
       <r>    9.9611   -0.0000 </r>
       <r>   10.3331   -0.0000 </r>
       <r>   10.3331   -0.0000 </r>
       <r>   11.5373   -0.0000 </r>
       <r>   15.1774    0.0000 </r>
       <r>   15.1781    0.0000 </r>
      </set>
      <set comment="kpoint 54">
       <r>    0.2370    1.0000 </r>
       <r>    0.6653    1.0000 </r>
       <r>    1.5182    1.0000 </r>
       <r>    1.9429    1.0000 </r>
       <r>    7.8887   -0.0148 </r>
       <r>    8.2954   -0.0000 </r>
       <r>    9.1083   -0.0000 </r>
       <r>    9.4818   -0.0000 </r>
       <r>    9.5145   -0.0000 </r>
       <r>    9.8892   -0.0000 </r>
       <r>   10.6978   -0.0000 </r>
       <r>   11.0997   -0.0000 </r>
       <r>   15.4631    0.0000 </r>
       <r>   15.6908    0.0000 </r>
      </set>
      <set comment="kpoint 55">
       <r>    0.6226    1.0000 </r>
       <r>    1.0498    1.0000 </r>
       <r>    1.0498    1.0000 </r>
       <r>    1.4759    1.0000 </r>
       <r>    8.2547   -0.0000 </r>
       <r>    8.6613   -0.0000 </r>
       <r>    8.6613   -0.0000 </r>
       <r>    9.0677   -0.0000 </r>
       <r>    9.8500   -0.0000 </r>
       <r>   10.2558   -0.0000 </r>
       <r>   10.2558   -0.0000 </r>
       <r>   10.6597   -0.0000 </r>
       <r>   16.3230    0.0000 </r>
       <r>   16.4175    0.0000 </r>
      </set>
      <set comment="kpoint 56">
       <r>   -3.1472    1.0000 </r>
       <r>    4.0529    1.0000 </r>
       <r>    4.0529    1.0000 </r>
       <r>    4.0529    1.0000 </r>
       <r>    6.8495    1.0000 </r>
       <r>    6.8495    1.0000 </r>
       <r>    6.8495    1.0000 </r>
       <r>   10.9441   -0.0000 </r>
       <r>   10.9441   -0.0000 </r>
       <r>   10.9441   -0.0000 </r>
       <r>   13.0247    0.0000 </r>
       <r>   13.0247    0.0000 </r>
       <r>   13.0247    0.0000 </r>
       <r>   14.1273    0.0000 </r>
      </set>
      <set comment="kpoint 57">
       <r>   -3.0595    1.0000 </r>
       <r>    3.3442    1.0000 </r>
       <r>    4.1357    1.0000 </r>
       <r>    4.1357    1.0000 </r>
       <r>    6.9328    1.0001 </r>
       <r>    6.9328    1.0001 </r>
       <r>    7.7110   -0.0119 </r>
       <r>   10.2581   -0.0000 </r>
       <r>   10.2581   -0.0000 </r>
       <r>   11.0254   -0.0000 </r>
       <r>   12.7726   -0.0000 </r>
       <r>   12.7726   -0.0000 </r>
       <r>   13.1000    0.0000 </r>
       <r>   14.2103    0.0000 </r>
      </set>
      <set comment="kpoint 58">
       <r>   -2.9280    1.0000 </r>
       <r>    2.6460    1.0000 </r>
       <r>    4.2599    1.0000 </r>
       <r>    4.2599    1.0000 </r>
       <r>    7.0570    1.0021 </r>
       <r>    7.0570    1.0021 </r>
       <r>    8.6380   -0.0000 </r>
       <r>    9.5871   -0.0000 </r>
       <r>    9.5871   -0.0000 </r>
       <r>   11.1474   -0.0000 </r>
       <r>   12.2541   -0.0000 </r>
       <r>   12.2541   -0.0000 </r>
       <r>   13.2130    0.0000 </r>
       <r>   14.3344    0.0000 </r>
      </set>
      <set comment="kpoint 59">
       <r>   -2.7528    1.0000 </r>
       <r>    1.9773    1.0000 </r>
       <r>    4.4253    1.0000 </r>
       <r>    4.4253    1.0000 </r>
       <r>    7.2212    1.0256 </r>
       <r>    7.2212    1.0256 </r>
       <r>    8.9476   -0.0000 </r>
       <r>    8.9476   -0.0000 </r>
       <r>    9.6110   -0.0000 </r>
       <r>   11.3104   -0.0000 </r>
       <r>   11.6873   -0.0000 </r>
       <r>   11.6873   -0.0000 </r>
       <r>   13.3636    0.0000 </r>
       <r>   14.4997    0.0000 </r>
      </set>
      <set comment="kpoint 60">
       <r>   -2.5341    1.0000 </r>
       <r>    1.3441    1.0000 </r>
       <r>    4.6319    1.0000 </r>
       <r>    4.6319    1.0000 </r>
       <r>    7.4211    0.8945 </r>
       <r>    7.4211    0.8945 </r>
       <r>    8.3486   -0.0000 </r>
       <r>    8.3486   -0.0000 </r>
       <r>   10.6219   -0.0000 </r>
       <r>   11.1241   -0.0000 </r>
       <r>   11.1241   -0.0000 </r>
       <r>   11.5161   -0.0000 </r>
       <r>   13.5519    0.0000 </r>
       <r>   14.7074    0.0000 </r>
      </set>
      <set comment="kpoint 61">
       <r>   -2.2721    1.0000 </r>
       <r>    0.7488    1.0000 </r>
       <r>    4.8795    1.0000 </r>
       <r>    4.8795    1.0000 </r>
       <r>    7.5934    0.2475 </r>
       <r>    7.5934    0.2475 </r>
       <r>    7.8546   -0.0221 </r>
       <r>    7.8546   -0.0221 </r>
       <r>   10.5827   -0.0000 </r>
       <r>   10.5827   -0.0000 </r>
       <r>   11.6254   -0.0000 </r>
       <r>   11.8066   -0.0000 </r>
       <r>   13.7780    0.0000 </r>
       <r>   14.5446    0.0000 </r>
      </set>
      <set comment="kpoint 62">
       <r>   -1.9670    1.0000 </r>
       <r>    0.1931    1.0000 </r>
       <r>    5.1677    1.0000 </r>
       <r>    5.1677    1.0000 </r>
       <r>    7.2109    1.0232 </r>
       <r>    7.2109    1.0232 </r>
       <r>    7.9922   -0.0026 </r>
       <r>    7.9922   -0.0026 </r>
       <r>   10.0730   -0.0000 </r>
       <r>   10.0730   -0.0000 </r>
       <r>   12.0229   -0.0000 </r>
       <r>   12.7781   -0.0000 </r>
       <r>   14.0296    0.0000 </r>
       <r>   14.0418    0.0000 </r>
      </set>
      <set comment="kpoint 63">
       <r>   -1.6191    1.0000 </r>
       <r>   -0.3221    1.0000 </r>
       <r>    5.4958    1.0000 </r>
       <r>    5.4958    1.0000 </r>
       <r>    6.7312    1.0000 </r>
       <r>    6.7312    1.0000 </r>
       <r>    8.2989   -0.0000 </r>
       <r>    8.2989   -0.0000 </r>
       <r>    9.6051   -0.0000 </r>
       <r>    9.6051   -0.0000 </r>
       <r>   12.3495   -0.0000 </r>
       <r>   13.5525    0.0000 </r>
       <r>   13.8930    0.0000 </r>
       <r>   14.3433    0.0000 </r>
      </set>
      <set comment="kpoint 64">
       <r>   -1.2287    1.0000 </r>
       <r>   -0.7963    1.0000 </r>
       <r>    5.8589    1.0000 </r>
       <r>    5.8589    1.0000 </r>
       <r>    6.2897    1.0000 </r>
       <r>    6.2897    1.0000 </r>
       <r>    8.6081   -0.0000 </r>
       <r>    8.6081   -0.0000 </r>
       <r>    9.2174   -0.0000 </r>
       <r>    9.2174   -0.0000 </r>
       <r>   12.7122   -0.0000 </r>
       <r>   13.1132    0.0000 </r>
       <r>   14.6831    0.0000 </r>
       <r>   15.0429    0.0000 </r>
      </set>
      <set comment="kpoint 65">
       <r>   -2.9718    1.0000 </r>
       <r>    3.4278    1.0000 </r>
       <r>    3.4278    1.0000 </r>
       <r>    4.2185    1.0000 </r>
       <r>    7.0153    1.0008 </r>
       <r>    7.7928   -0.0344 </r>
       <r>    7.7928   -0.0344 </r>
[...]
       <r>    1.0503    1.0000 </r>
       <r>    2.3248    1.0000 </r>
       <r>    2.3248    1.0000 </r>
       <r>    3.1643    1.0000 </r>
       <r>    3.5973    1.0000 </r>
       <r>    4.4305    1.0000 </r>
       <r>    4.4305    1.0000 </r>
       <r>    5.6801    1.0000 </r>
       <r>   15.4744    0.0000 </r>
       <r>   16.2240    0.0000 </r>
       <r>   16.2240    0.0000 </r>
       <r>   16.4069    0.0000 </r>
       <r>   16.4069    0.0000 </r>
       <r>   16.7034    0.0000 </r>
      </set>
      <set comment="kpoint 215">
       <r>    1.4340    1.0000 </r>
       <r>    1.8590    1.0000 </r>
       <r>    2.7049    1.0000 </r>
       <r>    3.1230    1.0000 </r>
       <r>    3.5548    1.0000 </r>
       <r>    3.9709    1.0000 </r>
       <r>    4.8063    1.0000 </r>
       <r>    5.2230    1.0000 </r>
       <r>   15.7966    0.0000 </r>
       <r>   16.1242    0.0000 </r>
       <r>   16.5183    0.0000 </r>
       <r>   16.7391    0.0000 </r>
       <r>   16.7499    0.0000 </r>
       <r>   17.1017    0.0000 </r>
      </set>
      <set comment="kpoint 216">
       <r>    1.8167    1.0000 </r>
       <r>    2.2405    1.0000 </r>
       <r>    2.2405    1.0000 </r>
       <r>    2.6629    1.0000 </r>
       <r>    3.9290    1.0000 </r>
       <r>    4.3472    1.0000 </r>
       <r>    4.3472    1.0000 </r>
       <r>    4.7648    1.0000 </r>
       <r>   16.1206    0.0000 </r>
       <r>   16.4531    0.0000 </r>
       <r>   16.4531    0.0000 </r>
       <r>   16.7937    0.0000 </r>
       <r>   17.3862    0.0000 </r>
       <r>   17.4633    0.0000 </r>
      </set>
      <set comment="kpoint 217">
       <r>    1.3915    1.0000 </r>
       <r>    2.6628    1.0000 </r>
       <r>    2.6628    1.0000 </r>
       <r>    2.6628    1.0000 </r>
       <r>    3.9293    1.0000 </r>
       <r>    3.9293    1.0000 </r>
       <r>    3.9293    1.0000 </r>
       <r>    5.1819    1.0000 </r>
       <r>   16.5107    0.0000 </r>
       <r>   16.5107    0.0000 </r>
       <r>   16.5107    0.0000 </r>
       <r>   17.0068    0.0000 </r>
       <r>   17.0069    0.0000 </r>
       <r>   17.0069    0.0000 </r>
      </set>
      <set comment="kpoint 218">
       <r>    1.7743    1.0000 </r>
       <r>    2.1983    1.0000 </r>
       <r>    3.0394    1.0000 </r>
       <r>    3.0394    1.0000 </r>
       <r>    3.4709    1.0000 </r>
       <r>    3.4709    1.0000 </r>
       <r>    4.3058    1.0000 </r>
       <r>    4.7235    1.0000 </r>
       <r>   16.8020    0.0000 </r>
       <r>   16.8025    0.0000 </r>
       <r>   17.0448    0.0000 </r>
       <r>   17.0450    0.0000 </r>
       <r>   17.3532    0.0000 </r>
       <r>   17.5287    0.0000 </r>
      </set>
      <set comment="kpoint 219">
       <r>    2.1561    1.0000 </r>
       <r>    2.5787    1.0000 </r>
       <r>    2.5787    1.0000 </r>
       <r>    2.9977    1.0000 </r>
       <r>    3.4287    1.0000 </r>
       <r>    3.8456    1.0000 </r>
       <r>    3.8456    1.0000 </r>
       <r>    4.2641    1.0000 </r>
       <r>   17.1036    0.0000 </r>
       <r>   17.3648    0.0000 </r>
       <r>   17.3678    0.0000 </r>
       <r>   17.6797    0.0000 </r>
       <r>   17.6943    0.0000 </r>
       <r>   17.7445    0.0000 </r>
      </set>
      <set comment="kpoint 220">
       <r>    2.5366    1.0000 </r>
       <r>    2.9559    1.0000 </r>
       <r>    2.9559    1.0000 </r>
       <r>    2.9559    1.0000 </r>
       <r>    3.3866    1.0000 </r>
       <r>    3.3866    1.0000 </r>
       <r>    3.3866    1.0000 </r>
       <r>    3.8038    1.0000 </r>
       <r>   18.0096    0.0000 </r>
       <r>   18.0138    0.0000 </r>
       <r>   18.0193    0.0000 </r>
       <r>   18.0213    0.0000 </r>
       <r>   18.0339    0.0000 </r>
       <r>   18.0925    0.0000 </r>
      </set>
     </set>
    </set>
   </array>
  </eigenvalues>
  <separator name="orbital magnetization" >
   <v name="MAGDIPOLOUT">      0.00000000      0.00000000      0.00000000</v>
  </separator>
  <dos>
   <i name="efermi">      7.53038378 </i>
   <total>
    <array>
     <dimension dim="1">gridpoints</dimension>
     <dimension dim="2">spin</dimension>
     <field>energy</field>
     <field>total</field>
     <field>integrated</field>
     <set>
      <set comment="spin 1">
       <r>    -5.2789     0.0000     0.0000 </r>
       <r>    -5.1944     0.0000     0.0000 </r>
       <r>    -5.1098     0.0000     0.0000 </r>
       <r>    -5.0252     0.0000     0.0000 </r>
       <r>    -4.9407    -0.0000    -0.0000 </r>
       <r>    -4.8561    -0.0000    -0.0000 </r>
       <r>    -4.7715    -0.0000    -0.0000 </r>
       <r>    -4.6869    -0.0000    -0.0000 </r>
       <r>    -4.6024    -0.0000    -0.0000 </r>
       <r>    -4.5178    -0.0000    -0.0000 </r>
       <r>    -4.4332    -0.0000    -0.0000 </r>
       <r>    -4.3487    -0.0000    -0.0000 </r>
       <r>    -4.2641    -0.0000    -0.0000 </r>
       <r>    -4.1795    -0.0000    -0.0000 </r>
       <r>    -4.0949    -0.0000    -0.0000 </r>
       <r>    -4.0104    -0.0000    -0.0000 </r>
       <r>    -3.9258    -0.0000    -0.0000 </r>
       <r>    -3.8412    -0.0000    -0.0000 </r>
       <r>    -3.7567    -0.0001    -0.0000 </r>
       <r>    -3.6721    -0.0006    -0.0001 </r>
       <r>    -3.5875    -0.0023    -0.0003 </r>
       <r>    -3.5029    -0.0051    -0.0007 </r>
       <r>    -3.4184    -0.0040    -0.0010 </r>
       <r>    -3.3338     0.0141     0.0002 </r>
       <r>    -3.2492     0.0596     0.0052 </r>
       <r>    -3.1647     0.1255     0.0158 </r>
       <r>    -3.0801     0.1915     0.0320 </r>
       <r>    -2.9955     0.2440     0.0526 </r>
       <r>    -2.9110     0.2840     0.0767 </r>
       <r>    -2.8264     0.3173     0.1035 </r>
       <r>    -2.7418     0.3465     0.1328 </r>
       <r>    -2.6572     0.3743     0.1645 </r>
       <r>    -2.5727     0.4016     0.1984 </r>
       <r>    -2.4881     0.4241     0.2343 </r>
       <r>    -2.4035     0.4460     0.2720 </r>
       <r>    -2.3190     0.4725     0.3120 </r>
       <r>    -2.2344     0.4938     0.3537 </r>
       <r>    -2.1498     0.5071     0.3966 </r>
       <r>    -2.0652     0.5274     0.4412 </r>
       <r>    -1.9807     0.5572     0.4883 </r>
       <r>    -1.8961     0.5748     0.5370 </r>
       <r>    -1.8115     0.5766     0.5857 </r>
       <r>    -1.7270     0.5941     0.6360 </r>
       <r>    -1.6424     0.6317     0.6894 </r>
       <r>    -1.5578     0.6510     0.7444 </r>
       <r>    -1.4732     0.6463     0.7991 </r>
       <r>    -1.3887     0.6528     0.8543 </r>
       <r>    -1.3041     0.6820     0.9120 </r>
       <r>    -1.2195     0.7142     0.9724 </r>
       <r>    -1.1350     0.7315     1.0342 </r>
       <r>    -1.0504     0.7281     1.0958 </r>
       <r>    -0.9658     0.7175     1.1565 </r>
       <r>    -0.8812     0.7380     1.2189 </r>
       <r>    -0.7967     0.7947     1.2861 </r>
       <r>    -0.7121     0.8258     1.3560 </r>
       <r>    -0.6275     0.7984     1.4235 </r>
       <r>    -0.5430     0.7716     1.4887 </r>
       <r>    -0.4584     0.8022     1.5566 </r>
       <r>    -0.3738     0.8565     1.6290 </r>
       <r>    -0.2892     0.8787     1.7033 </r>
       <r>    -0.2047     0.8781     1.7776 </r>
       <r>    -0.1201     0.8773     1.8518 </r>
       <r>    -0.0355     0.8728     1.9256 </r>
       <r>     0.0490     0.8720     1.9993 </r>
       <r>     0.1336     0.8956     2.0751 </r>
       <r>     0.2182     0.9461     2.1551 </r>
       <r>     0.3028     0.9888     2.2387 </r>
       <r>     0.3873     0.9816     2.3217 </r>
       <r>     0.4719     0.9338     2.4007 </r>
       <r>     0.5565     0.9038     2.4772 </r>
       <r>     0.6410     0.9445     2.5570 </r>
       <r>     0.7256     1.0355     2.6446 </r>
       <r>     0.8102     1.0820     2.7361 </r>
       <r>     0.8948     1.0425     2.8243 </r>
       <r>     0.9793     0.9923     2.9082 </r>
       <r>     1.0639     1.0028     2.9930 </r>
       <r>     1.1485     1.0431     3.0812 </r>
       <r>     1.2330     1.0599     3.1709 </r>
       <r>     1.3176     1.0659     3.2610 </r>
       <r>     1.4022     1.0921     3.3534 </r>
       <r>     1.4868     1.1317     3.4491 </r>
       <r>     1.5713     1.1529     3.5466 </r>
       <r>     1.6559     1.1271     3.6419 </r>
       <r>     1.7405     1.0681     3.7323 </r>
       <r>     1.8250     1.0502     3.8211 </r>
       <r>     1.9096     1.1225     3.9160 </r>
       <r>     1.9942     1.2156     4.0188 </r>
       <r>     2.0788     1.2461     4.1242 </r>
       <r>     2.1633     1.2306     4.2283 </r>
       <r>     2.2479     1.1901     4.3289 </r>
       <r>     2.3325     1.1299     4.4245 </r>
       <r>     2.4170     1.1187     4.5191 </r>
       <r>     2.5016     1.1985     4.6204 </r>
       <r>     2.5862     1.2868     4.7293 </r>
       <r>     2.6708     1.2990     4.8391 </r>
       <r>     2.7553     1.2677     4.9463 </r>
       <r>     2.8399     1.2526     5.0523 </r>
       <r>     2.9245     1.2596     5.1588 </r>
       <r>     3.0090     1.2864     5.2676 </r>
       <r>     3.0936     1.3091     5.3783 </r>
       <r>     3.1782     1.2813     5.4866 </r>
       <r>     3.2628     1.2346     5.5910 </r>
       <r>     3.3473     1.2675     5.6982 </r>
       <r>     3.4319     1.3832     5.8152 </r>
       <r>     3.5165     1.4594     5.9386 </r>
       <r>     3.6010     1.4265     6.0593 </r>
       <r>     3.6856     1.3430     6.1729 </r>
       <r>     3.7702     1.2845     6.2815 </r>
       <r>     3.8548     1.2811     6.3898 </r>
       <r>     3.9393     1.3406     6.5032 </r>
       <r>     4.0239     1.4461     6.6255 </r>
       <r>     4.1085     1.5257     6.7545 </r>
       <r>     4.1930     1.5159     6.8827 </r>
       <r>     4.2776     1.4495     7.0053 </r>
       <r>     4.3622     1.4003     7.1237 </r>
       <r>     4.4468     1.3998     7.2421 </r>
       <r>     4.5313     1.4536     7.3651 </r>
       <r>     4.6159     1.5450     7.4957 </r>
       <r>     4.7005     1.6158     7.6324 </r>
       <r>     4.7850     1.6275     7.7700 </r>
       <r>     4.8696     1.5950     7.9049 </r>
       <r>     4.9542     1.5349     8.0347 </r>
       <r>     5.0388     1.4899     8.1607 </r>
       <r>     5.1233     1.5234     8.2896 </r>
       <r>     5.2079     1.5980     8.4247 </r>
       <r>     5.2925     1.6044     8.5604 </r>
       <r>     5.3770     1.5236     8.6892 </r>
       <r>     5.4616     1.4337     8.8105 </r>
       <r>     5.5462     1.3891     8.9280 </r>
       <r>     5.6308     1.4000     9.0464 </r>
       <r>     5.7153     1.4578     9.1696 </r>
       <r>     5.7999     1.4989     9.2964 </r>
       <r>     5.8845     1.4745     9.4211 </r>
       <r>     5.9690     1.4357     9.5425 </r>
       <r>     6.0536     1.4235     9.6629 </r>
       <r>     6.1382     1.4308     9.7839 </r>
       <r>     6.2228     1.4946     9.9103 </r>
       <r>     6.3073     1.6123    10.0467 </r>
       <r>     6.3919     1.6668    10.1876 </r>
       <r>     6.4765     1.6003    10.3230 </r>
       <r>     6.5610     1.5099    10.4507 </r>
       <r>     6.6456     1.4977    10.5773 </r>
       <r>     6.7302     1.5545    10.7088 </r>
       <r>     6.8148     1.6198    10.8458 </r>
       <r>     6.8993     1.6554    10.9858 </r>
       <r>     6.9839     1.6403    11.1245 </r>
       <r>     7.0685     1.6041    11.2602 </r>
       <r>     7.1530     1.6215    11.3973 </r>
       <r>     7.2376     1.6838    11.5397 </r>
       <r>     7.3222     1.6907    11.6827 </r>
       <r>     7.4068     1.5963    11.8177 </r>
       <r>     7.4913     1.4813    11.9430 </r>
       <r>     7.5759     1.4840    12.0685 </r>
       <r>     7.6605     1.6428    12.2074 </r>
       <r>     7.7450     1.8445    12.3634 </r>
       <r>     7.8296     1.9505    12.5283 </r>
       <r>     7.9142     1.8980    12.6889 </r>
       <r>     7.9988     1.7347    12.8356 </r>
       <r>     8.0833     1.5893    12.9700 </r>
       <r>     8.1679     1.5618    13.1021 </r>
       <r>     8.2525     1.6523    13.2418 </r>
       <r>     8.3370     1.7692    13.3914 </r>
       <r>     8.4216     1.8160    13.5450 </r>
       <r>     8.5062     1.7825    13.6958 </r>
       <r>     8.5908     1.7148    13.8408 </r>
       <r>     8.6753     1.6709    13.9821 </r>
       <r>     8.7599     1.7275    14.1282 </r>
       <r>     8.8445     1.8770    14.2869 </r>
       <r>     8.9290     1.9716    14.4537 </r>
       <r>     9.0136     1.9292    14.6168 </r>
       <r>     9.0982     1.8352    14.7720 </r>
       <r>     9.1828     1.7406    14.9192 </r>
       <r>     9.2673     1.6252    15.0567 </r>
       <r>     9.3519     1.5854    15.1908 </r>
       <r>     9.4365     1.7452    15.3384 </r>
       <r>     9.5210     1.9992    15.5074 </r>
       <r>     9.6056     2.1289    15.6875 </r>
       <r>     9.6902     2.0610    15.8618 </r>
       <r>     9.7748     1.8543    16.0186 </r>
       <r>     9.8593     1.6720    16.1600 </r>
       <r>     9.9439     1.7153    16.3051 </r>
       <r>    10.0285     1.9487    16.4699 </r>
       <r>    10.1130     2.0946    16.6470 </r>
       <r>    10.1976     2.0164    16.8176 </r>
       <r>    10.2822     1.8649    16.9753 </r>
       <r>    10.3667     1.7998    17.1275 </r>
       <r>    10.4513     1.8249    17.2818 </r>
       <r>    10.5359     1.9084    17.4432 </r>
       <r>    10.6205     1.9982    17.6122 </r>
       <r>    10.7050     2.0043    17.7817 </r>
       <r>    10.7896     1.9674    17.9481 </r>
       <r>    10.8742     2.0274    18.1196 </r>
       <r>    10.9587     2.1451    18.3010 </r>
       <r>    11.0433     2.1417    18.4821 </r>
       <r>    11.1279     1.9990    18.6512 </r>
       <r>    11.2125     1.8837    18.8105 </r>
       <r>    11.2970     1.9008    18.9712 </r>
       <r>    11.3816     1.9659    19.1375 </r>
       <r>    11.4662     1.9749    19.3045 </r>
       <r>    11.5507     1.9771    19.4717 </r>
       <r>    11.6353     2.0668    19.6465 </r>
       <r>    11.7199     2.2149    19.8338 </r>
       <r>    11.8045     2.2917    20.0276 </r>
       <r>    11.8890     2.2240    20.2157 </r>
       <r>    11.9736     2.0836    20.3919 </r>
       <r>    12.0582     2.0028    20.5613 </r>
       <r>    12.1427     2.0515    20.7348 </r>
       <r>    12.2273     2.1658    20.9180 </r>
       <r>    12.3119     2.2024    21.1042 </r>
       <r>    12.3965     2.1447    21.2856 </r>
       <r>    12.4810     2.1170    21.4647 </r>
       <r>    12.5656     2.1780    21.6489 </r>
       <r>    12.6502     2.2838    21.8420 </r>
       <r>    12.7347     2.3684    22.0423 </r>
       <r>    12.8193     2.3661    22.2424 </r>
       <r>    12.9039     2.3021    22.4371 </r>
       <r>    12.9885     2.3347    22.6345 </r>
       <r>    13.0730     2.5065    22.8465 </r>
       <r>    13.1576     2.6188    23.0680 </r>
       <r>    13.2422     2.5219    23.2813 </r>
       <r>    13.3267     2.3118    23.4768 </r>
       <r>    13.4113     2.1828    23.6614 </r>
       <r>    13.4959     2.2028    23.8477 </r>
       <r>    13.5805     2.2531    24.0382 </r>
       <r>    13.6650     2.2379    24.2275 </r>
       <r>    13.7496     2.2138    24.4147 </r>
       <r>    13.8342     2.2063    24.6013 </r>
       <r>    13.9187     2.1639    24.7843 </r>
       <r>    14.0033     2.0968    24.9617 </r>
       <r>    14.0879     2.0469    25.1348 </r>
       <r>    14.1725     2.0101    25.3048 </r>
       <r>    14.2570     1.9862    25.4727 </r>
       <r>    14.3416     1.9926    25.6413 </r>
       <r>    14.4262     1.9607    25.8071 </r>
       <r>    14.5107     1.7897    25.9584 </r>
       <r>    14.5953     1.5421    26.0888 </r>
       <r>    14.6799     1.3989    26.2072 </r>
       <r>    14.7645     1.4373    26.3287 </r>
       <r>    14.8490     1.5549    26.4602 </r>
       <r>    14.9336     1.5802    26.5938 </r>
       <r>    15.0182     1.4293    26.7147 </r>
       <r>    15.1027     1.1930    26.8156 </r>
       <r>    15.1873     1.0388    26.9035 </r>
       <r>    15.2719     0.9896    26.9872 </r>
       <r>    15.3565     0.9340    27.0662 </r>
       <r>    15.4410     0.8474    27.1378 </r>
       <r>    15.5256     0.7914    27.2048 </r>
       <r>    15.6102     0.7789    27.2706 </r>
       <r>    15.6947     0.7854    27.3371 </r>
       <r>    15.7793     0.7749    27.4026 </r>
       <r>    15.8639     0.6942    27.4613 </r>
       <r>    15.9485     0.5543    27.5082 </r>
       <r>    16.0330     0.4581    27.5469 </r>
       <r>    16.1176     0.4494    27.5849 </r>
       <r>    16.2022     0.4499    27.6230 </r>
       <r>    16.2867     0.4129    27.6579 </r>
       <r>    16.3713     0.3982    27.6916 </r>
       <r>    16.4559     0.4331    27.7282 </r>
       <r>    16.5405     0.4375    27.7652 </r>
       <r>    16.6250     0.3740    27.7968 </r>
       <r>    16.7096     0.3124    27.8233 </r>
       <r>    16.7942     0.2781    27.8468 </r>
       <r>    16.8787     0.2325    27.8664 </r>
       <r>    16.9633     0.1965    27.8831 </r>
       <r>    17.0479     0.2005    27.9000 </r>
       <r>    17.1325     0.1974    27.9167 </r>
       <r>    17.2170     0.1555    27.9299 </r>
       <r>    17.3016     0.1203    27.9400 </r>
       <r>    17.3862     0.1187    27.9501 </r>
       <r>    17.4707     0.1159    27.9599 </r>
       <r>    17.5553     0.0946    27.9679 </r>
       <r>    17.6399     0.0789    27.9745 </r>
       <r>    17.7245     0.0734    27.9808 </r>
       <r>    17.8090     0.0581    27.9857 </r>
       <r>    17.8936     0.0387    27.9889 </r>
       <r>    17.9782     0.0370    27.9921 </r>
       <r>    18.0627     0.0442    27.9958 </r>
       <r>    18.1473     0.0363    27.9989 </r>
       <r>    18.2319     0.0160    28.0002 </r>
       <r>    18.3165     0.0014    28.0004 </r>
       <r>    18.4010    -0.0023    28.0002 </r>
       <r>    18.4856    -0.0014    28.0000 </r>
       <r>    18.5702    -0.0004    28.0000 </r>
       <r>    18.6547    -0.0001    28.0000 </r>
       <r>    18.7393    -0.0000    28.0000 </r>
       <r>    18.8239    -0.0000    28.0000 </r>
       <r>    18.9085    -0.0000    28.0000 </r>
       <r>    18.9930    -0.0000    28.0000 </r>
       <r>    19.0776    -0.0000    28.0000 </r>
       <r>    19.1622    -0.0000    28.0000 </r>
       <r>    19.2467    -0.0000    28.0000 </r>
       <r>    19.3313    -0.0000    28.0000 </r>
       <r>    19.4159     0.0000    28.0000 </r>
       <r>    19.5005     0.0000    28.0000 </r>
       <r>    19.5850     0.0000    28.0000 </r>
       <r>    19.6696     0.0000    28.0000 </r>
       <r>    19.7542     0.0000    28.0000 </r>
       <r>    19.8387     0.0000    28.0000 </r>
       <r>    19.9233     0.0000    28.0000 </r>
       <r>    20.0079     0.0000    28.0000 </r>
       <r>    20.0925     0.0000    28.0000 </r>
      </set>
     </set>
    </array>
   </total>
  </dos>
 </calculation>
 <structure name="finalpos" >
  <crystal>
   <varray name="basis" >
    <v>       4.10515343       0.00000000       0.00000000 </v>
    <v>      -0.00000000       4.10515343       0.00000000 </v>
    <v>       0.00000000       0.00000000       4.10515343 </v>
   </varray>
   <i name="volume">     69.18121405 </i>
   <varray name="rec_basis" >
    <v>       0.24359625       0.00000000      -0.00000000 </v>
    <v>       0.00000000       0.24359625       0.00000000 </v>
    <v>      -0.00000000      -0.00000000       0.24359625 </v>
   </varray>
  </crystal>
  <varray name="positions" >
   <v>       0.00000000       0.00000000       0.00000000 </v>
   <v>       0.00000000       0.50000000       0.50000000 </v>
   <v>       0.50000000       0.00000000       0.50000000 </v>
   <v>       0.50000000       0.50000000       0.00000000 </v>
  </varray>
 </structure>
</modeling>
