ITEM: TIMESTEP
0
ITEM: NUMBER OF ATOMS
4
ITEM: BOX BOUNDS xy xz yz pp pp pp
0.0000000000000000e+00 4.0319999997000000e+00 0.0000000000000000e+00
0.0000000000000000e+00 4.0319999997000000e+00 -0.0000000000000000e+00
0.0000000000000000e+00 4.0319999997000000e+00 -0.0000000000000000e+00
ITEM: ATOMS id type xs ys zs fx fy fz
1 1 0 0 0 -2.3134e-10 -2.3134e-10 -2.3134e-10
3 1 0.5 0.5 0 2.3134e-10 2.3134e-10 -2.3134e-10
2 1 0 0.5 0.5 -2.3134e-10 2.3134e-10 2.3134e-10
4 1 0.5 0 0.5 2.3134e-10 -2.3134e-10 2.3134e-10
ITEM: TIMESTEP
1
ITEM: NUMBER OF ATOMS
4
ITEM: BOX BOUNDS xy xz yz pp pp pp
0.0000000000000000e+00 4.0319999997000000e+00 0.0000000000000000e+00
0.0000000000000000e+00 4.0319999997000000e+00 -0.0000000000000000e+00
0.0000000000000000e+00 4.0319999997000000e+00 -0.0000000000000000e+00
ITEM: ATOMS id type xs ys zs fx fy fz
2 1 1 0.5 0.5 -6.38378e-16 6.60062e-16 6.38378e-16
3 1 0.5 0.5 1 6.38378e-16 6.03684e-16 -6.52256e-16
4 1 0.5 1 0.5 6.59195e-16 -6.03684e-16 6.41848e-16
1 1 1 1 1 -6.245e-16 -6.56593e-16 -6.83481e-16
