ITEM: TIMESTEP
0
ITEM: NUMBER OF ATOMS
4
ITEM: BOX BOUNDS xy xz yz pp pp pp
0.0000000000000000e+00 4.0369359481000000e+00 0.0000000000000000e+00
0.0000000000000000e+00 4.0167005527999997e+00 0.0000000000000000e+00
0.0000000000000000e+00 4.0369359481000000e+00 0.0000000000000000e+00
ITEM: ATOMS id type xs ys zs fx fy fz
1 1 0 0 0 2.40252e-10 -4.33681e-19 2.40252e-10
2 1 0 0.5 0.5 2.40252e-10 5.15674e-18 -2.40252e-10
3 1 0.5 0.5 0 -2.40252e-10 3.38813e-20 2.40252e-10
4 1 0.5 0 0.5 -2.40252e-10 -1.71101e-17 -2.40252e-10
ITEM: TIMESTEP
1
ITEM: NUMBER OF ATOMS
4
ITEM: BOX BOUNDS xy xz yz pp pp pp
0.0000000000000000e+00 4.0369359481000000e+00 0.0000000000000000e+00
0.0000000000000000e+00 4.0167005527999997e+00 0.0000000000000000e+00
0.0000000000000000e+00 4.0369359481000000e+00 0.0000000000000000e+00
ITEM: ATOMS id type xs ys zs fx fy fz
1 1 6.19283e-12 0 6.19283e-12 -1.80411e-16 1.88787e-17 -1.24266e-16
2 1 6.19283e-12 0.5 0.5 -3.88578e-16 -2.93819e-17 2.53325e-16
3 1 0.5 0.5 6.19283e-12 2.91434e-16 -1.0327e-17 -3.35579e-16
4 1 0.5 0 0.5 2.77556e-16 2.75523e-17 2.28461e-16
