ITEM: TIMESTEP
0
ITEM: NUMBER OF ATOMS
4
ITEM: BOX BOUNDS xy xz yz pp pp pp
-4.0369359500000000e-02 4.0369359481000000e+00 0.0000000000000000e+00
0.0000000000000000e+00 4.0369359481000000e+00 -4.0369359500000000e-02
0.0000000000000000e+00 4.0367340963000000e+00 0.0000000000000000e+00
ITEM: ATOMS id type xs ys zs fx fy fz
1 1 0 0 0 3.43134e-10 2.36874e-10 2.5306e-10
4 1 0.5 0 0.5 -3.43134e-10 2.36874e-10 -2.5306e-10
3 1 0.5 0.5 0 -1.30776e-10 -2.36874e-10 2.35737e-10
2 1 1.25095e-11 0.5 0.5 1.30776e-10 -2.36874e-10 -2.35738e-10
ITEM: TIMESTEP
2
ITEM: NUMBER OF ATOMS
4
ITEM: BOX BOUNDS xy xz yz pp pp pp
-4.0369359500000000e-02 4.0369359481000000e+00 0.0000000000000000e+00
0.0000000000000000e+00 4.0369359481000000e+00 -4.0369359500000000e-02
0.0000000000000000e+00 4.0367340963000000e+00 0.0000000000000000e+00
ITEM: ATOMS id type xs ys zs fx fy fz
1 1 1.24394e-11 6.20841e-12 6.18509e-12 2.98206e-13 -5.97594e-13 3.15825e-13
4 1 0.5 6.20842e-12 0.5 -2.98803e-13 -5.96837e-13 -3.15221e-13
3 1 0.5 0.5 6.18587e-12 -2.54768e-13 5.97053e-13 2.81529e-13
2 1 1.24412e-11 0.5 0.5 2.55351e-13 5.97318e-13 -2.82189e-13
