
16 atoms
1 atom types
   0.0000000000    2.8510545415 xlo xhi
   0.0000000000    6.9836288555 ylo yhi
   0.0000000000   26.3369137121 zlo zhi
  -0.0000000000    0.0100000000   -2.3278762852 xy xz yz

Atoms # atomic

     1      1    2.8599607915    2.6188608208   23.4563137749
     2      1    0.0095312500    0.2909845356   25.1023708819
     3      1    1.4347460207   -2.0368917495   24.2793423284
     4      1    1.4353710207    2.6188608208   25.9253994354
     5      1    2.8587107915    0.2909845356   20.1641995608
     6      1    0.0082812500    4.9467371060   21.8102566678
     7      1    1.4334960207    2.6188608208   20.9872281144
     8      1    1.4341210207    0.2909845356   22.6332852214
     9      1    2.8574607915    4.9467371060   16.8720853468
    10      1    0.0070312500    2.6188608208   18.5181424538
    11      1    1.4322460207    0.2909845356   17.6951139003
    12      1    1.4328710207    4.9467371060   19.3411710074
    13      1    2.8562107915    2.6188608208   13.5799711328
    14      1    0.0057812500    0.2909845356   15.2260282398
    15      1    1.4309960207    4.9467371060   14.4029996863
    16      1    1.4316210207    2.6188608208   16.0490567933
