ITEM: TIMESTEP
0
ITEM: NUMBER OF ATOMS
16
ITEM: BOX BOUNDS xy xz yz pp pp pp
0.0000000000000000e+00 2.8610545414999997e+00 -0.0000000000000000e+00
-2.3278762851999999e+00 6.9836288555000001e+00 1.0000000000000000e-02
0.0000000000000000e+00 2.6336913712099999e+01 -2.3278762851999999e+00
ITEM: ATOMS id type xs ys zs fx fy fz
11 1 0.5 0.265625 0.671875 -1.4952e-05 -0.00369014 -0.062864
14 1 1.0404e-15 0.234375 0.578125 0.000539197 0.0445608 -0.0640332
5 1 3.77519e-15 0.296875 0.765625 1.61169e-07 -0.00158822 0.01121
2 1 1 0.359375 0.953125 -0.000480701 0.045898 -0.0771103
3 1 0.5 0.015625 0.921875 -0.000539197 -0.0445608 0.0640332
8 1 0.5 0.328125 0.859375 9.54722e-06 0.021334 0.0913214
13 1 4.44089e-16 0.546875 0.515625 0.000677251 0.00611338 0.314352
15 1 0.5 0.890625 0.546875 0.000480701 -0.045898 0.0771103
9 1 1.77636e-15 0.921875 0.640625 -9.54722e-06 -0.021334 -0.0913214
10 1 2.7053e-15 0.609375 0.703125 -1.62819e-06 -0.00290875 -0.043114
16 1 0.5 0.578125 0.609375 -6.65999e-06 0.022168 -0.100773
6 1 4.3702e-15 0.984375 0.828125 1.4952e-05 0.00369014 0.062864
7 1 0.5 0.640625 0.796875 1.62819e-06 0.00290875 0.043114
12 1 0.5 0.953125 0.734375 -1.61169e-07 0.00158822 -0.01121
1 1 1 0.671875 0.890625 6.65999e-06 -0.022168 0.100773
4 1 0.5 0.703125 0.984375 -0.000677251 -0.00611338 -0.314352
