
8 atoms
1 atom types
   0.0000000000    2.8510545415 xlo xhi
   0.0000000000    4.0319999997 ylo yhi
   0.0000000000   22.8084363320 zlo zhi
  -0.0000000000    0.0100000000    0.0000000000 xy xz yz

Atoms # atomic

     1      1    2.1392284061    0.0000000000    2.1382909061
     2      1    0.7130761353    2.0159999999    0.7127636354
     3      1    2.1404784061    0.0000000000    4.9893454476
     4      1    0.7143261353    2.0159999999    3.5638181769
     5      1    2.1417284061    0.0000000000    7.8403999891
     6      1    0.7155761353    2.0159999999    6.4148727184
     7      1    2.1429784061    0.0000000000   10.6914545306
     8      1    0.7168261353    2.0159999999    9.2659272599
