ITEM: TIMESTEP
0
ITEM: NUMBER OF ATOMS
8
ITEM: BOX BOUNDS xy xz yz pp pp pp
0.0000000000000000e+00 2.8610545414999997e+00 -0.0000000000000000e+00
0.0000000000000000e+00 4.0319999997000000e+00 1.0000000000000000e-02
0.0000000000000000e+00 2.2808436331999999e+01 0.0000000000000000e+00
ITEM: ATOMS id type xs ys zs fx fy fz
1 1 0.75 0 0.09375 -0.00011073 2.35638e-10 -0.0757409
3 1 0.75 0 0.21875 4.8502e-06 2.31175e-10 -0.0459272
5 1 0.75 0 0.34375 -3.51513e-05 2.31599e-10 0.0959201
7 1 0.75 0 0.46875 -0.000623277 1.1962e-10 -0.246047
2 1 0.25 0.5 0.03125 0.000623277 -1.19619e-10 0.246047
4 1 0.25 0.5 0.15625 3.51513e-05 -2.31599e-10 -0.0959201
6 1 0.25 0.5 0.28125 -4.8502e-06 -2.31175e-10 0.0459272
8 1 0.25 0.5 0.40625 0.00011073 -2.35639e-10 0.0757409
