ITEM: TIMESTEP
0
ITEM: NUMBER OF ATOMS
4
ITEM: BOX BOUNDS xy xz yz pp pp pp
0.0000000000000000e+00 3.4048836464000001e+00 -0.0000000000000000e+00
0.0000000000000000e+00 3.4048836464000001e+00 -0.0000000000000000e+00
0.0000000000000000e+00 3.4048836464000001e+00 -0.0000000000000000e+00
ITEM: ATOMS id type xs ys zs fx fy fz
1 1 0 0 0 2.22045e-16 0 -3.40276e-16
4 1 0.5 0 0.5 5.55112e-17 1.38778e-17 2.07889e-17
3 1 0.5 0.5 0 -3.33067e-16 2.77339e-16 -5.65066e-18
2 1 0 0.5 0.5 -2.22045e-16 7.24898e-16 -2.22344e-16
ITEM: TIMESTEP
1
ITEM: NUMBER OF ATOMS
4
ITEM: BOX BOUNDS xy xz yz pp pp pp
0.0000000000000000e+00 3.4048836464000001e+00 -0.0000000000000000e+00
0.0000000000000000e+00 3.4048836464000001e+00 -0.0000000000000000e+00
0.0000000000000000e+00 3.4048836464000001e+00 -0.0000000000000000e+00
ITEM: ATOMS id type xs ys zs fx fy fz
1 1 0 0 0 2.22045e-16 0 -3.40276e-16
4 1 0.5 0 0.5 5.55112e-17 1.38778e-17 2.07889e-17
3 1 0.5 0.5 0 -3.33067e-16 2.77339e-16 -5.65066e-18
2 1 0 0.5 0.5 -2.22045e-16 7.24898e-16 -2.22344e-16
