
4 atoms
1 atom types
   0.0000000000    4.0499988870 xlo xhi
   0.0000000000    4.0499988870 ylo yhi
   0.0000000000    4.0491888062 zlo zhi
   0.0000000000    0.0000000000   -0.0809999777 xy xz yz

Atoms # atomic

     1      1    0.0000000000    0.0000000000    0.0000000000
     2      1    0.0000000000    1.9844994546    2.0245944031
     3      1    2.0249994435    2.0249994435    0.0000000000
     4      1    2.0249994435   -0.0404999889    2.0245944031
