ITEM: TIMESTEP
0
ITEM: NUMBER OF ATOMS
4
ITEM: BOX BOUNDS xy xz yz pp pp pp
0.0000000000000000e+00 4.0499988870000001e+00 0.0000000000000000e+00
-8.0999977700000003e-02 4.0499988870000001e+00 0.0000000000000000e+00
0.0000000000000000e+00 4.0491888062000001e+00 -8.0999977700000003e-02
ITEM: ATOMS id type xs ys zs fx fy fz
1 1 0 0 0 0 -1.63227e-10 -3.409e-11
2 1 0 0.5 0.5 0 1.63227e-10 3.409e-11
3 1 0.5 0.5 0 0 -1.63226e-10 -3.40897e-11
4 1 0.5 1 0.5 0 1.63226e-10 3.40898e-11
ITEM: TIMESTEP
2
ITEM: NUMBER OF ATOMS
4
ITEM: BOX BOUNDS xy xz yz pp pp pp
0.0000000000000000e+00 4.0499988870000001e+00 0.0000000000000000e+00
-8.0999977700000003e-02 4.0499988870000001e+00 0.0000000000000000e+00
0.0000000000000000e+00 4.0491888062000001e+00 -8.0999977700000003e-02
ITEM: ATOMS id type xs ys zs fx fy fz
2 1 2.44769e-18 0.5 0.5 2.77827e-17 -1.75381e-15 -8.80893e-15
1 1 0 1 0 2.77285e-17 2.5804e-15 8.42555e-15
3 1 0.5 0.5 0 -2.09793e-17 3.64075e-15 1.15741e-14
4 1 0.5 1 0.5 -3.45589e-17 -4.46952e-15 -1.11907e-14
