
4 atoms
1 atom types
   0.0000000000    4.0319999997 xlo xhi
   0.0000000000    4.0319999997 ylo yhi
   0.0000000000    4.0721203908 zlo zhi
   0.0000000000    0.0000000000    0.0000000000 xy xz yz

Atoms # atomic

     1      1    0.0000000000    0.0000000000    0.0000000000
     2      1    0.0000000000    2.0159999998    2.0360601954
     3      1    2.0159999998    2.0159999998    0.0000000000
     4      1    2.0159999998    0.0000000000    2.0360601954
