ITEM: TIMESTEP
0
ITEM: NUMBER OF ATOMS
4
ITEM: BOX BOUNDS xy xz yz pp pp pp
0.0000000000000000e+00 4.0319999997000000e+00 0.0000000000000000e+00
0.0000000000000000e+00 4.0319999997000000e+00 0.0000000000000000e+00
0.0000000000000000e+00 4.0721203908000003e+00 0.0000000000000000e+00
ITEM: ATOMS id type xs ys zs fx fy fz
1 1 0 0 0 -2.23221e-10 -2.23221e-10 5.89806e-17
3 1 0.5 0.5 0 2.23221e-10 2.23221e-10 -3.46945e-18
2 1 0 0.5 0.5 -2.23221e-10 2.23221e-10 -3.46945e-18
4 1 0.5 0 0.5 2.23221e-10 -2.23221e-10 1.38778e-17
ITEM: TIMESTEP
1
ITEM: NUMBER OF ATOMS
4
ITEM: BOX BOUNDS xy xz yz pp pp pp
0.0000000000000000e+00 4.0319999997000000e+00 0.0000000000000000e+00
0.0000000000000000e+00 4.0319999997000000e+00 0.0000000000000000e+00
0.0000000000000000e+00 4.0721203908000003e+00 0.0000000000000000e+00
ITEM: ATOMS id type xs ys zs fx fy fz
3 1 0.5 0.5 0 9.4369e-16 9.28077e-16 -2.42861e-17
2 1 1 0.5 0.5 -9.15934e-16 9.567e-16 -2.08167e-17
1 1 1 1 1.62215e-18 -9.29812e-16 -9.17669e-16 0
4 1 0.5 1 0.5 9.22873e-16 -9.15934e-16 -3.1225e-17
