ITEM: TIMESTEP
0
ITEM: NUMBER OF ATOMS
4
ITEM: BOX BOUNDS xy xz yz pp pp pp
0.0000000000000000e+00 4.1126399996999998e+00 0.0000000000000000e+00
0.0000000000000000e+00 4.0319999997000000e+00 8.0640000000000003e-02
0.0000000000000000e+00 4.0311935190000003e+00 0.0000000000000000e+00
ITEM: ATOMS id type xs ys zs fx fy fz
1 1 0 0 0 -2.31658e-10 -2.31336e-10 1.72262e-11
4 1 0.5 0 0.5 2.31658e-10 -2.31336e-10 -1.72262e-11
2 1 -1.73472e-18 0.5 0.5 -2.31657e-10 2.31336e-10 1.72258e-11
3 1 0.5 0.5 0 2.31657e-10 2.31336e-10 -1.72258e-11
ITEM: TIMESTEP
1
ITEM: NUMBER OF ATOMS
4
ITEM: BOX BOUNDS xy xz yz pp pp pp
0.0000000000000000e+00 4.1126399996999998e+00 0.0000000000000000e+00
0.0000000000000000e+00 4.0319999997000000e+00 8.0640000000000003e-02
0.0000000000000000e+00 4.0311935190000003e+00 0.0000000000000000e+00
ITEM: ATOMS id type xs ys zs fx fy fz
3 1 0.5 0.5 1 -4.87943e-13 1.10466e-12 8.21891e-12
4 1 0.5 1 0.5 -4.89365e-13 -1.105e-12 8.21794e-12
2 1 1 0.5 0.5 4.87652e-13 1.10499e-12 -8.21888e-12
1 1 1 1 4.59595e-13 4.89608e-13 -1.10466e-12 -8.21792e-12
