ITEM: TIMESTEP
0
ITEM: NUMBER OF ATOMS
4
ITEM: BOX BOUNDS xy xz yz pp pp pp
0.0000000000000000e+00 4.1309988647000004e+00 8.0999977700000003e-02
0.0000000000000000e+00 4.0491888062000001e+00 0.0000000000000000e+00
0.0000000000000000e+00 4.0499988870000001e+00 0.0000000000000000e+00
ITEM: ATOMS id type xs ys zs fx fy fz
1 1 0 0 0 1.63224e-10 -3.40893e-11 2.07205e-16
2 1 1.23457e-11 0.5 0.5 -1.63228e-10 3.409e-11 -1.3169e-16
3 1 0.5 0.5 0 -1.63223e-10 3.40892e-11 1.25903e-16
4 1 0.5 0 0.5 1.63227e-10 -3.40899e-11 -2.01377e-16
ITEM: TIMESTEP
2
ITEM: NUMBER OF ATOMS
4
ITEM: BOX BOUNDS xy xz yz pp pp pp
0.0000000000000000e+00 4.1309988647000004e+00 8.0999977700000003e-02
0.0000000000000000e+00 4.0491888062000001e+00 0.0000000000000000e+00
0.0000000000000000e+00 4.0499988870000001e+00 0.0000000000000000e+00
ITEM: ATOMS id type xs ys zs fx fy fz
1 1 6.17284e-12 0 2.08342e-17 -3.31332e-16 3.19189e-15 1.50406e-16
2 1 6.17262e-12 0.5 0.5 4.28824e-15 -5.05151e-15 6.92602e-16
3 1 0.5 0.5 1.21213e-17 -1.34961e-15 -1.36219e-15 -8.16567e-16
4 1 0.5 0 0.5 -2.60902e-15 3.22312e-15 -2.64681e-17
