ITEM: TIMESTEP
0
ITEM: NUMBER OF ATOMS
4
ITEM: BOX BOUNDS xy xz yz pp pp pp
0.0000000000000000e+00 4.0721203908000003e+00 0.0000000000000000e+00
0.0000000000000000e+00 4.0319999997000000e+00 0.0000000000000000e+00
0.0000000000000000e+00 4.0319999997000000e+00 0.0000000000000000e+00
ITEM: ATOMS id type xs ys zs fx fy fz
1 1 0 0 0 3.46945e-18 -2.23221e-10 -2.23221e-10
2 1 0 0.5 0.5 3.46945e-18 2.23221e-10 2.23221e-10
3 1 0.5 0.5 0 0 2.23221e-10 -2.23221e-10
4 1 0.5 0 0.5 -3.46945e-18 -2.23221e-10 2.23221e-10
ITEM: TIMESTEP
1
ITEM: NUMBER OF ATOMS
4
ITEM: BOX BOUNDS xy xz yz pp pp pp
0.0000000000000000e+00 4.0721203908000003e+00 0.0000000000000000e+00
0.0000000000000000e+00 4.0319999997000000e+00 0.0000000000000000e+00
0.0000000000000000e+00 4.0319999997000000e+00 0.0000000000000000e+00
ITEM: ATOMS id type xs ys zs fx fy fz
2 1 9.54208e-20 0.5 0.5 0 9.4369e-16 9.22873e-16
1 1 9.54208e-20 1 1 0 -9.15934e-16 -9.22873e-16
4 1 0.5 1 0.5 -5.20417e-18 -9.57567e-16 9.29812e-16
3 1 0.5 0.5 1 0 9.4369e-16 -9.36751e-16
