ITEM: TIMESTEP
0
ITEM: NUMBER OF ATOMS
4
ITEM: BOX BOUNDS xy xz yz pp pp pp
-4.0320000000000002e-02 4.0319999997000000e+00 -4.0320000000000002e-02
0.0000000000000000e+00 4.0317983946000000e+00 0.0000000000000000e+00
0.0000000000000000e+00 4.0319999997000000e+00 0.0000000000000000e+00
ITEM: ATOMS id type xs ys zs fx fy fz
1 1 0 0 0 -2.3142e-10 -8.60433e-12 -2.31339e-10
3 1 0.5 0.5 0 2.3142e-10 8.60431e-12 -2.31339e-10
2 1 0 0.5 0.5 -2.3142e-10 -8.60431e-12 2.31339e-10
4 1 0.5 0 0.5 2.3142e-10 8.60434e-12 2.31339e-10
ITEM: TIMESTEP
1
ITEM: NUMBER OF ATOMS
4
ITEM: BOX BOUNDS xy xz yz pp pp pp
-4.0320000000000002e-02 4.0319999997000000e+00 -4.0320000000000002e-02
0.0000000000000000e+00 4.0317983946000000e+00 0.0000000000000000e+00
0.0000000000000000e+00 4.0319999997000000e+00 0.0000000000000000e+00
ITEM: ATOMS id type xs ys zs fx fy fz
4 1 0.5 2.30351e-13 0.5 -1.19439e-13 -4.11297e-12 2.77198e-13
3 1 0.5 0.5 1 -1.18447e-13 -4.10935e-12 -2.77488e-13
2 1 1 0.5 0.5 1.19085e-13 4.11096e-12 2.77936e-13
1 1 1 1 1 1.18759e-13 4.11136e-12 -2.77523e-13
