ITEM: TIMESTEP
0
ITEM: NUMBER OF ATOMS
4
ITEM: BOX BOUNDS xy xz yz pp pp pp
0.0000000000000000e+00 4.0773053075999997e+00 0.0000000000000000e+00
0.0000000000000000e+00 4.0369359481000000e+00 4.0369359500000000e-02
0.0000000000000000e+00 4.0367340963000000e+00 0.0000000000000000e+00
ITEM: ATOMS id type xs ys zs fx fy fz
1 1 0 0 0 1.30776e-10 2.36874e-10 2.35737e-10
4 1 0.5 0 0.5 -1.30777e-10 2.36874e-10 -2.35737e-10
3 1 0.5 0.5 0 -3.43137e-10 -2.36874e-10 2.53061e-10
2 1 1 0.5 0.5 3.43138e-10 -2.36874e-10 -2.53061e-10
ITEM: TIMESTEP
2
ITEM: NUMBER OF ATOMS
4
ITEM: BOX BOUNDS xy xz yz pp pp pp
0.0000000000000000e+00 4.0773053075999997e+00 0.0000000000000000e+00
0.0000000000000000e+00 4.0369359481000000e+00 4.0369359500000000e-02
0.0000000000000000e+00 4.0367340963000000e+00 0.0000000000000000e+00
ITEM: ATOMS id type xs ys zs fx fy fz
1 1 1 6.20839e-12 6.18592e-12 2.53741e-13 -5.97007e-13 2.80137e-13
4 1 0.5 6.20842e-12 0.5 -2.53658e-13 -5.96272e-13 -2.78548e-13
3 1 0.5 0.5 6.18513e-12 -3.01814e-13 5.96303e-13 3.1242e-13
2 1 1 0.5 0.5 3.01675e-13 5.97063e-13 -3.14011e-13
