ITEM: TIMESTEP
0
ITEM: NUMBER OF ATOMS
4
ITEM: BOX BOUNDS xy xz yz pp pp pp
0.0000000000000000e+00 4.0117893460999996e+00 0.0000000000000000e+00
0.0000000000000000e+00 4.0319999997000000e+00 0.0000000000000000e+00
0.0000000000000000e+00 4.0319999997000000e+00 0.0000000000000000e+00
ITEM: ATOMS id type xs ys zs fx fy fz
1 1 0 0 0 -2.37234e-10 -2.35592e-10 -2.35592e-10
3 1 0.5 0.5 0 2.37234e-10 2.35592e-10 -2.35592e-10
2 1 0 0.5 0.5 -2.37234e-10 2.35592e-10 2.35592e-10
4 1 0.5 0 0.5 2.37234e-10 -2.35592e-10 2.35592e-10
ITEM: TIMESTEP
1
ITEM: NUMBER OF ATOMS
4
ITEM: BOX BOUNDS xy xz yz pp pp pp
0.0000000000000000e+00 4.0117893460999996e+00 0.0000000000000000e+00
0.0000000000000000e+00 4.0319999997000000e+00 0.0000000000000000e+00
0.0000000000000000e+00 4.0319999997000000e+00 0.0000000000000000e+00
ITEM: ATOMS id type xs ys zs fx fy fz
2 1 1 0.5 0.5 1.09048e-12 5.51837e-13 5.52447e-13
3 1 0.5 0.5 1 -1.0905e-12 5.51496e-13 -5.51544e-13
4 1 0.5 1 0.5 -1.09044e-12 -5.51448e-13 5.51469e-13
1 1 1 1 1 1.09049e-12 -5.51906e-13 -5.5245e-13
