ITEM: TIMESTEP
0
ITEM: NUMBER OF ATOMS
4
ITEM: BOX BOUNDS xy xz yz pp pp pp
0.0000000000000000e+00 4.0499988870000001e+00 0.0000000000000000e+00
0.0000000000000000e+00 4.0296980128000000e+00 0.0000000000000000e+00
0.0000000000000000e+00 4.0499988870000001e+00 0.0000000000000000e+00
ITEM: ATOMS id type xs ys zs fx fy fz
1 1 0 0 0 0 1.76942e-16 1.36609e-16
2 1 0 0.5 0.5 0 -1.78677e-16 -1.34875e-16
3 1 0.5 0.5 0 0 -1.78677e-16 -1.31405e-16
4 1 0.5 0 0.5 0 1.76942e-16 1.36609e-16
ITEM: TIMESTEP
1
ITEM: NUMBER OF ATOMS
4
ITEM: BOX BOUNDS xy xz yz pp pp pp
0.0000000000000000e+00 4.0499988870000001e+00 0.0000000000000000e+00
0.0000000000000000e+00 4.0296980128000000e+00 0.0000000000000000e+00
0.0000000000000000e+00 4.0499988870000001e+00 0.0000000000000000e+00
ITEM: ATOMS id type xs ys zs fx fy fz
1 1 0 0 0 0 1.76942e-16 1.36609e-16
2 1 0 0.5 0.5 0 -1.78677e-16 -1.34875e-16
3 1 0.5 0.5 0 0 -1.78677e-16 -1.31405e-16
4 1 0.5 0 0.5 0 1.76942e-16 1.36609e-16
