 running   14 mpi-ranks, with    2 threads/rank, on    1 nodes
 distrk:  each k-point on   14 cores,    1 groups
 distr:  one band on    1 cores,   14 groups
 vasp.6.4.2 20Jul23 (build Apr 22 2024 22:35:45) complex                         
 POSCAR found type information on POSCAR Al
 POSCAR found :  1 types and       4 ions
 scaLAPACK will be used
 -----------------------------------------------------------------------------
|                                                                             |
|               ----> ADVICE to this user running VASP <----                  |
|                                                                             |
|     You have a (more or less) 'small supercell' and for smaller cells       |
|     it is recommended to use the reciprocal-space projection scheme!        |
|     The real-space optimization is not efficient for small cells and it     |
|     is also less accurate ...                                               |
|     Therefore, set LREAL=.FALSE. in the INCAR file.                         |
|                                                                             |
 -----------------------------------------------------------------------------

 LDA part: xc-table for Pade appr. of Perdew
 POSCAR, INCAR and KPOINTS ok, starting setup
 FFT: planning ... GRIDC
 FFT: planning ... GRID_SOFT
 FFT: planning ... GRID
 WAVECAR not read
 entering main loop
       N       E                     dE             d eps       ncg     rms          rms(c)
DAV:   1    -0.242558847359E+01   -0.24256E+01   -0.38419E+03 15470   0.522E+02
DAV:   2    -0.150009892932E+02   -0.12575E+02   -0.12238E+02 22428   0.476E+01
DAV:   3    -0.150739424788E+02   -0.72953E-01   -0.72725E-01 20258   0.492E+00
DAV:   4    -0.150741096256E+02   -0.16715E-03   -0.16714E-03 25620   0.230E-01
DAV:   5    -0.150741097122E+02   -0.86630E-07   -0.85556E-07 20258   0.400E-03    0.258E+00
RMM:   6    -0.150223934002E+02    0.51716E-01   -0.55583E-03 15400   0.433E-01    0.151E+00
RMM:   7    -0.149845717148E+02    0.37822E-01   -0.16916E-02 15400   0.724E-01    0.224E-01
RMM:   8    -0.149845405451E+02    0.31170E-04   -0.57206E-04 15400   0.159E-01    0.278E-02
RMM:   9    -0.149845462241E+02   -0.56790E-05   -0.98922E-05 15400   0.686E-02    0.230E-02
RMM:  10    -0.149845473459E+02   -0.11217E-05   -0.22368E-05 15400   0.335E-02    0.213E-02
RMM:  11    -0.149845427471E+02    0.45987E-05   -0.44938E-06 15206   0.129E-02    0.463E-03
RMM:  12    -0.149845426995E+02    0.47616E-07   -0.12045E-06 11479   0.825E-03
   1 F= -.14984543E+02 E0= -.14985142E+02  d E =-.149845E+02
 curvature:   0.00 expect dE= 0.000E+00 dE for cont linesearch  0.000E+00
 trial: gam= 0.00000 g(F)=  0.132E-62 g(S)=  0.000E+00 ort = 0.000E+00 (trialstep = 0.100E+01)
 search vector abs. value=  0.100E-09
 reached required accuracy - stopping structural energy minimisation
