
16 atoms
1 atom types
   0.0000000000    2.8510545415 xlo xhi
   0.0000000000    8.5531636245 ylo yhi
   0.0000000000   24.1919999979 zlo zhi
  -0.0000000000    0.0100000000    0.0000000000 xy xz yz

Atoms # atomic

     1      1    2.4956449461    0.8315575746    2.3519999998
     2      1    2.4950893905    4.6329636299    1.0079999999
     3      1    1.0698398975    7.0088424145    1.6799999999
     4      1    1.0692843420    2.2570848454    0.3360000000
     5      1    2.4967560572    1.7819090884    5.0399999996
     6      1    2.4962005016    5.5833151438    3.6959999997
     7      1    1.0709510086    7.9591939284    4.3679999996
     8      1    1.0703954531    3.2074363592    3.0239999997
     9      1    2.4978671683    2.7322606023    7.7279999993
    10      1    2.4973116127    6.5336666576    6.3839999995
    11      1    1.0720621198    0.3563818177    7.0559999994
    12      1    1.0715065642    4.1577878730    5.7119999995
    13      1    2.4989782794    3.6826121161   10.4159999991
    14      1    2.4984227238    7.4840181714    9.0719999992
    15      1    1.0731732309    1.3067333315    9.7439999992
    16      1    1.0726176753    5.1081393869    8.3999999993
