ITEM: TIMESTEP
0
ITEM: NUMBER OF ATOMS
16
ITEM: BOX BOUNDS xy xz yz pp pp pp
0.0000000000000000e+00 2.8610545414999997e+00 -0.0000000000000000e+00
0.0000000000000000e+00 8.5531636244999998e+00 1.0000000000000000e-02
0.0000000000000000e+00 2.4191999997900002e+01 0.0000000000000000e+00
ITEM: ATOMS id type xs ys zs fx fy fz
1 1 0.875 0.0972222 0.0972222 -9.53205e-05 0.0333206 -0.0846702
4 1 0.375 0.263889 0.0138889 0.000563258 0.0312454 0.314004
8 1 0.375 0.375 0.125 1.80789e-05 0.00454809 -0.116225
5 1 0.875 0.208333 0.208333 3.98717e-06 -0.0072935 -0.0276865
12 1 0.375 0.486111 0.236111 -3.98723e-06 0.0072935 0.0276865
9 1 0.875 0.319444 0.319444 -1.80789e-05 -0.00454809 0.116225
11 1 0.375 0.0416667 0.291667 -5.39207e-06 0.00748006 0.0767633
15 1 0.375 0.152778 0.402778 -0.000390779 0.0754126 -0.108281
13 1 0.875 0.430556 0.430556 -0.000563258 -0.0312454 -0.314004
2 1 0.875 0.541667 0.0416667 0.000390779 -0.0754126 0.108281
3 1 0.375 0.819444 0.0694444 0.000387253 0.0248374 0.0347167
6 1 0.875 0.652778 0.152778 5.39196e-06 -0.00748006 -0.0767633
7 1 0.375 0.930556 0.180556 1.71464e-05 -0.00955159 -0.0467297
10 1 0.875 0.763889 0.263889 -1.71463e-05 0.00955159 0.0467297
14 1 0.875 0.875 0.375 -0.000387253 -0.0248374 -0.0347167
16 1 0.375 0.597222 0.347222 9.53204e-05 -0.0333206 0.0846702
