 running   14 mpi-ranks, with    2 threads/rank, on    1 nodes
 distrk:  each k-point on   14 cores,    1 groups
 distr:  one band on    1 cores,   14 groups
 vasp.6.4.2 20Jul23 (build Apr 22 2024 22:35:45) complex                         
 POSCAR found type information on POSCAR Al
 POSCAR found :  1 types and       4 ions
 scaLAPACK will be used
 -----------------------------------------------------------------------------
|                                                                             |
|               ----> ADVICE to this user running VASP <----                  |
|                                                                             |
|     You have a (more or less) 'small supercell' and for smaller cells       |
|     it is recommended to use the reciprocal-space projection scheme!        |
|     The real-space optimization is not efficient for small cells and it     |
|     is also less accurate ...                                               |
|     Therefore, set LREAL=.FALSE. in the INCAR file.                         |
|                                                                             |
 -----------------------------------------------------------------------------

 LDA part: xc-table for Pade appr. of Perdew
 POSCAR, INCAR and KPOINTS ok, starting setup
 FFT: planning ... GRIDC
 FFT: planning ... GRID_SOFT
 FFT: planning ... GRID
 WAVECAR not read
 entering main loop
       N       E                     dE             d eps       ncg     rms          rms(c)
DAV:   1     0.372387917298E+01    0.37239E+01   -0.42757E+03 10444   0.547E+02
DAV:   2    -0.108768391032E+02   -0.14601E+02   -0.14245E+02 15022   0.577E+01
DAV:   3    -0.109411420192E+02   -0.64303E-01   -0.64122E-01 12922   0.499E+00
DAV:   4    -0.109412715147E+02   -0.12950E-03   -0.12949E-03 17108   0.211E-01
DAV:   5    -0.109412715688E+02   -0.54071E-07   -0.53933E-07 13090   0.304E-03    0.497E+00
RMM:   6    -0.108119275486E+02    0.12934E+00   -0.15275E-03 10192   0.281E-01    0.293E+00
RMM:   7    -0.107271560757E+02    0.84771E-01   -0.78963E-03 10192   0.617E-01    0.409E-01
RMM:   8    -0.107272856068E+02   -0.12953E-03   -0.11229E-03 10192   0.235E-01    0.104E-01
RMM:   9    -0.107270701625E+02    0.21544E-03   -0.27029E-04 10192   0.104E-01    0.307E-02
RMM:  10    -0.107270755512E+02   -0.53887E-05   -0.67222E-05 10192   0.620E-02    0.496E-02
RMM:  11    -0.107270763660E+02   -0.81489E-06   -0.14681E-05 10179   0.230E-02    0.214E-02
RMM:  12    -0.107270774139E+02   -0.10479E-05   -0.37086E-06  9120   0.145E-02    0.184E-02
RMM:  13    -0.107270771318E+02    0.28211E-06   -0.84281E-07  6687   0.558E-03
   1 F= -.10727077E+02 E0= -.10727573E+02  d E =-.107271E+02
 curvature:   0.00 expect dE= 0.000E+00 dE for cont linesearch  0.000E+00
 trial: gam= 0.00000 g(F)=  0.950E-63 g(S)=  0.614E-30 ort = 0.000E+00 (trialstep = 0.100E+01)
 search vector abs. value=  0.100E-09
 reached required accuracy - stopping structural energy minimisation
