 vasp.6.4.2 20Jul23 (build Apr 22 2024 22:35:45) complex                         
 executed on             LinuxGNU date 2024.05.26  15:37:48
 running   14 mpi-ranks, with    2 threads/rank, on    1 nodes
 distrk:  each k-point on   14 cores,    1 groups
 distr:  one band on NCORE=   1 cores,   14 groups


--------------------------------------------------------------------------------------------------------


 INCAR:
   ALGO = Fast
   EDIFF = 1e-06
   ENCUT = 400
   IBRION = 2
   ISIF = 4
   ISMEAR = 1
   KSPACING = 0.08
   LCHARG = False
   LREAL = Auto
   LWAVE = False
   NELM = 60
   NELMIN = 4
   NSW = 100
   PREC = Accurate
   SIGMA = 0.2
   SYSTEM = Al fcc relaxation

 POTCAR:    PAW_PBE Al 04Jan2001                  
 POTCAR:    PAW_PBE Al 04Jan2001                  
   SHA256 =  17880443556af62b473fe41b62a467bd001ad55d2cabe504a3f22e34d4e9db96 Al/POTCAR             
   COPYR  = (c) Copyright 04Jan2001 Georg Kresse                                                    
   COPYR  = This file is part of the software VASP. Any use, copying, and all other rights are regul
   COPYR  = If you do not have a valid VASP license, you may not use, copy or distribute this file. 
   VRHFIN =Al: s2p1                                                                                 
   LEXCH  = PE                                                                                      
   EATOM  =    53.5387 eV,    3.9350 Ry                                                             
                                                                                                    
   TITEL  = PAW_PBE Al 04Jan2001                                                                    
   LULTRA =        F    use ultrasoft PP ?                                                          
   IUNSCR =        1    unscreen: 0-lin 1-nonlin 2-no                                               
   RPACOR =    1.500    partial core radius                                                         
   POMASS =   26.981; ZVAL   =    3.000    mass and valenz                                          
   RCORE  =    1.900    outmost cutoff radius                                                       
   RWIGS  =    2.650; RWIGS  =    1.402    wigner-seitz radius (au A)                               
   ENMAX  =  240.300; ENMIN  =  180.225 eV                                                          
   ICORE  =        2    local potential                                                             
   LCOR   =        T    correct aug charges                                                         
   LPAW   =        T    paw PP                                                                      
   EAUG   =  291.052                                                                                
   DEXC   =    0.000                                                                                
   RMAX   =    1.939    core radius for proj-oper                                                   
   RAUG   =    1.300    factor for augmentation sphere                                              
   RDEP   =    1.966    radius for radial grids                                                     
   RDEPT  =    1.856    core radius for aug-charge                                                  
                                                                                                    
   Atomic configuration                                                                             
    6 entries                                                                                       
     n  l   j            E        occ.                                                              
     1  0  0.50     -1511.1048   2.0000                                                             
     2  0  0.50      -108.1629   2.0000                                                             
     2  1  1.50       -69.6402   6.0000                                                             
     3  0  0.50        -7.7528   2.0000                                                             
     3  1  1.50        -2.7121   1.0000                                                             
     3  2  2.50        -2.7212   0.0000                                                             
   Description                                                                                      
     l       E           TYP  RCUT    TYP  RCUT                                                     
     0     -7.7528455     23  1.900                                                                 
     0     -3.3096929     23  1.900                                                                 
     1     -2.7120682     23  1.900                                                                 
     1     13.6058260     23  1.900                                                                 
     2     -2.7211652      7  1.900                                                                 
  local pseudopotential read in
  partial core-charges read in
  partial kinetic energy density read in
  atomic valenz-charges read in
  non local Contribution for L=           0  read in
    real space projection operators read in
  non local Contribution for L=           0  read in
    real space projection operators read in
  non local Contribution for L=           1  read in
    real space projection operators read in
  non local Contribution for L=           1  read in
    real space projection operators read in
    PAW grid and wavefunctions read in

   number of l-projection  operators is LMAX  =           4
   number of lm-projection operators is LMMAX =           8

 -----------------------------------------------------------------------------
|                                                                             |
|               ----> ADVICE to this user running VASP <----                  |
|                                                                             |
|     You have a (more or less) 'small supercell' and for smaller cells       |
|     it is recommended to use the reciprocal-space projection scheme!        |
|     The real-space optimization is not efficient for small cells and it     |
|     is also less accurate ...                                               |
|     Therefore, set LREAL=.FALSE. in the INCAR file.                         |
|                                                                             |
 -----------------------------------------------------------------------------

 Optimization of the real space projectors (new method)

 maximal supplied QI-value         = 19.84
 optimisation between [QCUT,QGAM] = [ 10.12, 20.44] = [ 28.68,116.96] Ry 
 Optimized for a Real-space Cutoff    1.38 Angstroem

   l    n(q)    QCUT    max X(q) W(low)/X(q) W(high)/X(q)  e(spline) 
   0      8    10.119   176.870    0.39E-04    0.93E-04    0.54E-07
   0      8    10.119   105.762    0.37E-04    0.91E-04    0.53E-07
   1      8    10.119    55.370    0.18E-03    0.13E-03    0.19E-06
   1      8    10.119    20.208    0.17E-03    0.12E-03    0.18E-06
  PAW_PBE Al 04Jan2001                  :
 energy of atom  1       EATOM=  -53.5387
 kinetic energy error for atom=    0.0005 (will be added to EATOM!!)


 POSCAR: Al4
  positions in direct lattice
  velocities in cartesian coordinates
 exchange correlation table for  LEXCH =        8
   RHO(1)=    0.500       N(1)  =     2000
   RHO(2)=  100.500       N(2)  =     4000



--------------------------------------------------------------------------------------------------------


 ion  position               nearest neighbor table
   1  0.000  0.000  0.000-   2 2.47   3 2.47   4 2.47   2 2.47   3 2.47   2 2.47   4 2.47   2 2.47
                             3 2.47   4 2.47   3 2.47   4 2.47
   2  0.000  0.500  0.500-   1 2.47   3 2.47   4 2.47   1 2.47   4 2.47   1 2.47   3 2.47   1 2.47
                             3 2.47   4 2.47   4 2.47   3 2.47
   3  0.500  0.000  0.500-   1 2.47   2 2.47   4 2.47   1 2.47   4 2.47   2 2.47   4 2.47   4 2.47
                             1 2.47   2 2.47   1 2.47   2 2.47
   4  0.500  0.500  0.000-   1 2.47   2 2.47   3 2.47   2 2.47   3 2.47   1 2.47   3 2.47   3 2.47
                             1 2.47   2 2.47   2 2.47   1 2.47

  LATTYP: Found a simple cubic cell.
 ALAT       =     3.4986788440
  
  Lattice vectors:
  
 A1 = (   3.4986788440,   0.0000000000,   0.0000000000)
 A2 = (  -0.0000000000,   3.4986788440,   0.0000000000)
 A3 = (   0.0000000000,   0.0000000000,   3.4986788440)


Analysis of symmetry for initial positions (statically):
=====================================================================
 Subroutine PRICEL returns following result:
 
  LATTYP: Found a face centered cubic cell.
 ALAT       =     3.4986788440
  
  Lattice vectors:
  
 A1 = (   1.7493394220,  -1.7493394220,   0.0000000000)
 A2 = (   1.7493394220,   0.0000000000,   1.7493394220)
 A3 = (   0.0000000000,  -1.7493394220,   1.7493394220)
 
   4 primitive cells build up your supercell.
 

 Routine SETGRP: Setting up the symmetry group for a 
 simple cubic supercell.


 Subroutine GETGRP returns: Found 48 space group operations
 (whereof 48 operations were pure point group operations)
 out of a pool of 48 trial point group operations.


The static configuration has the point symmetry O_h .


Analysis of symmetry for dynamics (positions and initial velocities):
=====================================================================
 Subroutine PRICEL returns following result:
 
  LATTYP: Found a face centered cubic cell.
 ALAT       =     3.4986788440
  
  Lattice vectors:
  
 A1 = (   1.7493394220,  -1.7493394220,   0.0000000000)
 A2 = (   1.7493394220,   0.0000000000,   1.7493394220)
 A3 = (   0.0000000000,  -1.7493394220,   1.7493394220)
 
   4 primitive cells build up your supercell.
 

 Routine SETGRP: Setting up the symmetry group for a 
 simple cubic supercell.


 Subroutine GETGRP returns: Found 48 space group operations
 (whereof 48 operations were pure point group operations)
 out of a pool of 48 trial point group operations.


The dynamic configuration has the point symmetry O_h .


 Subroutine INISYM returns: Found 48 space group operations
 (whereof 48 operations are pure point group operations),
 and found     4 'primitive' translations


----------------------------------------------------------------------------------------

                                     Primitive cell                                     

  volume of cell :      10.7066

  direct lattice vectors                    reciprocal lattice vectors
     1.749339422 -1.749339422  0.000000000     0.285822176 -0.285822176 -0.285822176
     1.749339422  0.000000000  1.749339422     0.285822176  0.285822176  0.285822176
     0.000000000 -1.749339422  1.749339422    -0.285822176 -0.285822176  0.285822176

  length of vectors
     2.473939536  2.473939536  2.473939536     0.495058531  0.495058531  0.495058531

  position of ions in fractional coordinates (direct lattice)
     0.000000000  0.000000000  0.000000000

  ion indices of the primitive-cell ions
   primitive index   ion index
                 1           1

----------------------------------------------------------------------------------------



 KPOINTS: Automatic kpoint scheme                 

Automatic generation of k-mesh.
 Grid dimensions read from file:
 generate k-points for:   23   23   23

 Generating k-lattice:

  Cartesian coordinates                     Fractional coordinates (reciprocal lattice)
     0.012427051  0.000000000 -0.000000000     0.043478261 -0.000000000  0.000000000
     0.000000000  0.012427051  0.000000000     0.000000000  0.043478261  0.000000000
    -0.000000000 -0.000000000  0.012427051     0.000000000  0.000000000  0.043478261

  Length of vectors
     0.012427051  0.012427051  0.012427051

  Shift w.r.t. Gamma in fractional coordinates (k-lattice)
     0.000000000  0.000000000  0.000000000

 
 Subroutine IBZKPT returns following result:
 ===========================================
 
 Found    364 irreducible k-points:
 
 Following reciprocal coordinates:
            Coordinates               Weight
  0.000000  0.000000  0.000000      1.000000
  0.043478  0.000000  0.000000      6.000000
  0.086957  0.000000  0.000000      6.000000
  0.130435  0.000000  0.000000      6.000000
  0.173913  0.000000  0.000000      6.000000
  0.217391  0.000000  0.000000      6.000000
  0.260870  0.000000  0.000000      6.000000
  0.304348  0.000000  0.000000      6.000000
  0.347826  0.000000  0.000000      6.000000
  0.391304  0.000000  0.000000      6.000000
  0.434783  0.000000  0.000000      6.000000
  0.478261  0.000000  0.000000      6.000000
  0.043478  0.043478  0.000000     12.000000
  0.086957  0.043478  0.000000     24.000000
  0.130435  0.043478  0.000000     24.000000
  0.173913  0.043478  0.000000     24.000000
  0.217391  0.043478  0.000000     24.000000
  0.260870  0.043478  0.000000     24.000000
  0.304348  0.043478  0.000000     24.000000
  0.347826  0.043478  0.000000     24.000000
  0.391304  0.043478  0.000000     24.000000
  0.434783  0.043478  0.000000     24.000000
  0.478261  0.043478  0.000000     24.000000
  0.086957  0.086957  0.000000     12.000000
  0.130435  0.086957  0.000000     24.000000
  0.173913  0.086957  0.000000     24.000000
  0.217391  0.086957  0.000000     24.000000
  0.260870  0.086957  0.000000     24.000000
  0.304348  0.086957  0.000000     24.000000
  0.347826  0.086957  0.000000     24.000000
  0.391304  0.086957  0.000000     24.000000
  0.434783  0.086957  0.000000     24.000000
  0.478261  0.086957  0.000000     24.000000
  0.130435  0.130435  0.000000     12.000000
  0.173913  0.130435  0.000000     24.000000
  0.217391  0.130435  0.000000     24.000000
  0.260870  0.130435  0.000000     24.000000
  0.304348  0.130435  0.000000     24.000000
  0.347826  0.130435  0.000000     24.000000
  0.391304  0.130435  0.000000     24.000000
  0.434783  0.130435  0.000000     24.000000
  0.478261  0.130435  0.000000     24.000000
  0.173913  0.173913  0.000000     12.000000
  0.217391  0.173913  0.000000     24.000000
  0.260870  0.173913  0.000000     24.000000
  0.304348  0.173913  0.000000     24.000000
  0.347826  0.173913  0.000000     24.000000
  0.391304  0.173913  0.000000     24.000000
  0.434783  0.173913  0.000000     24.000000
  0.478261  0.173913  0.000000     24.000000
  0.217391  0.217391  0.000000     12.000000
  0.260870  0.217391  0.000000     24.000000
  0.304348  0.217391  0.000000     24.000000
  0.347826  0.217391  0.000000     24.000000
  0.391304  0.217391  0.000000     24.000000
  0.434783  0.217391  0.000000     24.000000
  0.478261  0.217391  0.000000     24.000000
  0.260870  0.260870  0.000000     12.000000
  0.304348  0.260870  0.000000     24.000000
  0.347826  0.260870  0.000000     24.000000
  0.391304  0.260870  0.000000     24.000000
  0.434783  0.260870  0.000000     24.000000
  0.478261  0.260870  0.000000     24.000000
  0.304348  0.304348  0.000000     12.000000
  0.347826  0.304348  0.000000     24.000000
  0.391304  0.304348  0.000000     24.000000
  0.434783  0.304348  0.000000     24.000000
  0.478261  0.304348  0.000000     24.000000
  0.347826  0.347826  0.000000     12.000000
  0.391304  0.347826  0.000000     24.000000
  0.434783  0.347826  0.000000     24.000000
  0.478261  0.347826  0.000000     24.000000
  0.391304  0.391304  0.000000     12.000000
  0.434783  0.391304  0.000000     24.000000
  0.478261  0.391304  0.000000     24.000000
  0.434783  0.434783  0.000000     12.000000
  0.478261  0.434783  0.000000     24.000000
  0.478261  0.478261  0.000000     12.000000
  0.043478  0.043478  0.043478      8.000000
  0.086957  0.043478  0.043478     24.000000
  0.130435  0.043478  0.043478     24.000000
  0.173913  0.043478  0.043478     24.000000
  0.217391  0.043478  0.043478     24.000000
  0.260870  0.043478  0.043478     24.000000
  0.304348  0.043478  0.043478     24.000000
  0.347826  0.043478  0.043478     24.000000
  0.391304  0.043478  0.043478     24.000000
  0.434783  0.043478  0.043478     24.000000
  0.478261  0.043478  0.043478     24.000000
  0.086957  0.086957  0.043478     24.000000
  0.130435  0.086957  0.043478     48.000000
  0.173913  0.086957  0.043478     48.000000
  0.217391  0.086957  0.043478     48.000000
  0.260870  0.086957  0.043478     48.000000
  0.304348  0.086957  0.043478     48.000000
  0.347826  0.086957  0.043478     48.000000
  0.391304  0.086957  0.043478     48.000000
  0.434783  0.086957  0.043478     48.000000
  0.478261  0.086957  0.043478     48.000000
  0.130435  0.130435  0.043478     24.000000
  0.173913  0.130435  0.043478     48.000000
  0.217391  0.130435  0.043478     48.000000
  0.260870  0.130435  0.043478     48.000000
  0.304348  0.130435  0.043478     48.000000
  0.347826  0.130435  0.043478     48.000000
  0.391304  0.130435  0.043478     48.000000
  0.434783  0.130435  0.043478     48.000000
  0.478261  0.130435  0.043478     48.000000
  0.173913  0.173913  0.043478     24.000000
  0.217391  0.173913  0.043478     48.000000
  0.260870  0.173913  0.043478     48.000000
  0.304348  0.173913  0.043478     48.000000
  0.347826  0.173913  0.043478     48.000000
  0.391304  0.173913  0.043478     48.000000
  0.434783  0.173913  0.043478     48.000000
  0.478261  0.173913  0.043478     48.000000
  0.217391  0.217391  0.043478     24.000000
  0.260870  0.217391  0.043478     48.000000
  0.304348  0.217391  0.043478     48.000000
  0.347826  0.217391  0.043478     48.000000
  0.391304  0.217391  0.043478     48.000000
  0.434783  0.217391  0.043478     48.000000
  0.478261  0.217391  0.043478     48.000000
  0.260870  0.260870  0.043478     24.000000
  0.304348  0.260870  0.043478     48.000000
  0.347826  0.260870  0.043478     48.000000
  0.391304  0.260870  0.043478     48.000000
  0.434783  0.260870  0.043478     48.000000
  0.478261  0.260870  0.043478     48.000000
  0.304348  0.304348  0.043478     24.000000
  0.347826  0.304348  0.043478     48.000000
  0.391304  0.304348  0.043478     48.000000
  0.434783  0.304348  0.043478     48.000000
  0.478261  0.304348  0.043478     48.000000
  0.347826  0.347826  0.043478     24.000000
  0.391304  0.347826  0.043478     48.000000
  0.434783  0.347826  0.043478     48.000000
  0.478261  0.347826  0.043478     48.000000
  0.391304  0.391304  0.043478     24.000000
  0.434783  0.391304  0.043478     48.000000
  0.478261  0.391304  0.043478     48.000000
  0.434783  0.434783  0.043478     24.000000
  0.478261  0.434783  0.043478     48.000000
  0.478261  0.478261  0.043478     24.000000
  0.086957  0.086957  0.086957      8.000000
  0.130435  0.086957  0.086957     24.000000
  0.173913  0.086957  0.086957     24.000000
  0.217391  0.086957  0.086957     24.000000
  0.260870  0.086957  0.086957     24.000000
  0.304348  0.086957  0.086957     24.000000
  0.347826  0.086957  0.086957     24.000000
  0.391304  0.086957  0.086957     24.000000
  0.434783  0.086957  0.086957     24.000000
  0.478261  0.086957  0.086957     24.000000
  0.130435  0.130435  0.086957     24.000000
  0.173913  0.130435  0.086957     48.000000
  0.217391  0.130435  0.086957     48.000000
  0.260870  0.130435  0.086957     48.000000
  0.304348  0.130435  0.086957     48.000000
  0.347826  0.130435  0.086957     48.000000
  0.391304  0.130435  0.086957     48.000000
  0.434783  0.130435  0.086957     48.000000
  0.478261  0.130435  0.086957     48.000000
  0.173913  0.173913  0.086957     24.000000
  0.217391  0.173913  0.086957     48.000000
  0.260870  0.173913  0.086957     48.000000
  0.304348  0.173913  0.086957     48.000000
  0.347826  0.173913  0.086957     48.000000
  0.391304  0.173913  0.086957     48.000000
  0.434783  0.173913  0.086957     48.000000
  0.478261  0.173913  0.086957     48.000000
  0.217391  0.217391  0.086957     24.000000
  0.260870  0.217391  0.086957     48.000000
  0.304348  0.217391  0.086957     48.000000
  0.347826  0.217391  0.086957     48.000000
  0.391304  0.217391  0.086957     48.000000
  0.434783  0.217391  0.086957     48.000000
  0.478261  0.217391  0.086957     48.000000
  0.260870  0.260870  0.086957     24.000000
  0.304348  0.260870  0.086957     48.000000
  0.347826  0.260870  0.086957     48.000000
  0.391304  0.260870  0.086957     48.000000
  0.434783  0.260870  0.086957     48.000000
  0.478261  0.260870  0.086957     48.000000
  0.304348  0.304348  0.086957     24.000000
  0.347826  0.304348  0.086957     48.000000
  0.391304  0.304348  0.086957     48.000000
  0.434783  0.304348  0.086957     48.000000
  0.478261  0.304348  0.086957     48.000000
  0.347826  0.347826  0.086957     24.000000
  0.391304  0.347826  0.086957     48.000000
  0.434783  0.347826  0.086957     48.000000
  0.478261  0.347826  0.086957     48.000000
  0.391304  0.391304  0.086957     24.000000
  0.434783  0.391304  0.086957     48.000000
  0.478261  0.391304  0.086957     48.000000
  0.434783  0.434783  0.086957     24.000000
  0.478261  0.434783  0.086957     48.000000
  0.478261  0.478261  0.086957     24.000000
  0.130435  0.130435  0.130435      8.000000
  0.173913  0.130435  0.130435     24.000000
  0.217391  0.130435  0.130435     24.000000
  0.260870  0.130435  0.130435     24.000000
  0.304348  0.130435  0.130435     24.000000
  0.347826  0.130435  0.130435     24.000000
  0.391304  0.130435  0.130435     24.000000
  0.434783  0.130435  0.130435     24.000000
  0.478261  0.130435  0.130435     24.000000
  0.173913  0.173913  0.130435     24.000000
  0.217391  0.173913  0.130435     48.000000
  0.260870  0.173913  0.130435     48.000000
  0.304348  0.173913  0.130435     48.000000
  0.347826  0.173913  0.130435     48.000000
  0.391304  0.173913  0.130435     48.000000
  0.434783  0.173913  0.130435     48.000000
  0.478261  0.173913  0.130435     48.000000
  0.217391  0.217391  0.130435     24.000000
  0.260870  0.217391  0.130435     48.000000
  0.304348  0.217391  0.130435     48.000000
  0.347826  0.217391  0.130435     48.000000
  0.391304  0.217391  0.130435     48.000000
  0.434783  0.217391  0.130435     48.000000
  0.478261  0.217391  0.130435     48.000000
  0.260870  0.260870  0.130435     24.000000
  0.304348  0.260870  0.130435     48.000000
  0.347826  0.260870  0.130435     48.000000
  0.391304  0.260870  0.130435     48.000000
  0.434783  0.260870  0.130435     48.000000
  0.478261  0.260870  0.130435     48.000000
  0.304348  0.304348  0.130435     24.000000
  0.347826  0.304348  0.130435     48.000000
  0.391304  0.304348  0.130435     48.000000
  0.434783  0.304348  0.130435     48.000000
  0.478261  0.304348  0.130435     48.000000
  0.347826  0.347826  0.130435     24.000000
  0.391304  0.347826  0.130435     48.000000
  0.434783  0.347826  0.130435     48.000000
  0.478261  0.347826  0.130435     48.000000
  0.391304  0.391304  0.130435     24.000000
  0.434783  0.391304  0.130435     48.000000
  0.478261  0.391304  0.130435     48.000000
  0.434783  0.434783  0.130435     24.000000
  0.478261  0.434783  0.130435     48.000000
  0.478261  0.478261  0.130435     24.000000
  0.173913  0.173913  0.173913      8.000000
  0.217391  0.173913  0.173913     24.000000
  0.260870  0.173913  0.173913     24.000000
  0.304348  0.173913  0.173913     24.000000
  0.347826  0.173913  0.173913     24.000000
  0.391304  0.173913  0.173913     24.000000
  0.434783  0.173913  0.173913     24.000000
  0.478261  0.173913  0.173913     24.000000
  0.217391  0.217391  0.173913     24.000000
  0.260870  0.217391  0.173913     48.000000
  0.304348  0.217391  0.173913     48.000000
  0.347826  0.217391  0.173913     48.000000
  0.391304  0.217391  0.173913     48.000000
  0.434783  0.217391  0.173913     48.000000
  0.478261  0.217391  0.173913     48.000000
  0.260870  0.260870  0.173913     24.000000
  0.304348  0.260870  0.173913     48.000000
  0.347826  0.260870  0.173913     48.000000
  0.391304  0.260870  0.173913     48.000000
  0.434783  0.260870  0.173913     48.000000
  0.478261  0.260870  0.173913     48.000000
  0.304348  0.304348  0.173913     24.000000
  0.347826  0.304348  0.173913     48.000000
  0.391304  0.304348  0.173913     48.000000
  0.434783  0.304348  0.173913     48.000000
  0.478261  0.304348  0.173913     48.000000
  0.347826  0.347826  0.173913     24.000000
  0.391304  0.347826  0.173913     48.000000
  0.434783  0.347826  0.173913     48.000000
  0.478261  0.347826  0.173913     48.000000
  0.391304  0.391304  0.173913     24.000000
  0.434783  0.391304  0.173913     48.000000
  0.478261  0.391304  0.173913     48.000000
  0.434783  0.434783  0.173913     24.000000
  0.478261  0.434783  0.173913     48.000000
  0.478261  0.478261  0.173913     24.000000
  0.217391  0.217391  0.217391      8.000000
  0.260870  0.217391  0.217391     24.000000
  0.304348  0.217391  0.217391     24.000000
  0.347826  0.217391  0.217391     24.000000
  0.391304  0.217391  0.217391     24.000000
  0.434783  0.217391  0.217391     24.000000
  0.478261  0.217391  0.217391     24.000000
  0.260870  0.260870  0.217391     24.000000
  0.304348  0.260870  0.217391     48.000000
  0.347826  0.260870  0.217391     48.000000
  0.391304  0.260870  0.217391     48.000000
  0.434783  0.260870  0.217391     48.000000
  0.478261  0.260870  0.217391     48.000000
  0.304348  0.304348  0.217391     24.000000
  0.347826  0.304348  0.217391     48.000000
  0.391304  0.304348  0.217391     48.000000
  0.434783  0.304348  0.217391     48.000000
  0.478261  0.304348  0.217391     48.000000
  0.347826  0.347826  0.217391     24.000000
  0.391304  0.347826  0.217391     48.000000
  0.434783  0.347826  0.217391     48.000000
  0.478261  0.347826  0.217391     48.000000
  0.391304  0.391304  0.217391     24.000000
  0.434783  0.391304  0.217391     48.000000
  0.478261  0.391304  0.217391     48.000000
  0.434783  0.434783  0.217391     24.000000
  0.478261  0.434783  0.217391     48.000000
  0.478261  0.478261  0.217391     24.000000
  0.260870  0.260870  0.260870      8.000000
  0.304348  0.260870  0.260870     24.000000
  0.347826  0.260870  0.260870     24.000000
  0.391304  0.260870  0.260870     24.000000
  0.434783  0.260870  0.260870     24.000000
  0.478261  0.260870  0.260870     24.000000
  0.304348  0.304348  0.260870     24.000000
  0.347826  0.304348  0.260870     48.000000
  0.391304  0.304348  0.260870     48.000000
  0.434783  0.304348  0.260870     48.000000
  0.478261  0.304348  0.260870     48.000000
  0.347826  0.347826  0.260870     24.000000
  0.391304  0.347826  0.260870     48.000000
  0.434783  0.347826  0.260870     48.000000
  0.478261  0.347826  0.260870     48.000000
  0.391304  0.391304  0.260870     24.000000
  0.434783  0.391304  0.260870     48.000000
  0.478261  0.391304  0.260870     48.000000
  0.434783  0.434783  0.260870     24.000000
  0.478261  0.434783  0.260870     48.000000
  0.478261  0.478261  0.260870     24.000000
  0.304348  0.304348  0.304348      8.000000
  0.347826  0.304348  0.304348     24.000000
  0.391304  0.304348  0.304348     24.000000
  0.434783  0.304348  0.304348     24.000000
  0.478261  0.304348  0.304348     24.000000
  0.347826  0.347826  0.304348     24.000000
  0.391304  0.347826  0.304348     48.000000
  0.434783  0.347826  0.304348     48.000000
  0.478261  0.347826  0.304348     48.000000
  0.391304  0.391304  0.304348     24.000000
  0.434783  0.391304  0.304348     48.000000
  0.478261  0.391304  0.304348     48.000000
  0.434783  0.434783  0.304348     24.000000
  0.478261  0.434783  0.304348     48.000000
  0.478261  0.478261  0.304348     24.000000
  0.347826  0.347826  0.347826      8.000000
  0.391304  0.347826  0.347826     24.000000
  0.434783  0.347826  0.347826     24.000000
  0.478261  0.347826  0.347826     24.000000
  0.391304  0.391304  0.347826     24.000000
  0.434783  0.391304  0.347826     48.000000
  0.478261  0.391304  0.347826     48.000000
  0.434783  0.434783  0.347826     24.000000
  0.478261  0.434783  0.347826     48.000000
  0.478261  0.478261  0.347826     24.000000
  0.391304  0.391304  0.391304      8.000000
  0.434783  0.391304  0.391304     24.000000
  0.478261  0.391304  0.391304     24.000000
  0.434783  0.434783  0.391304     24.000000
  0.478261  0.434783  0.391304     48.000000
  0.478261  0.478261  0.391304     24.000000
  0.434783  0.434783  0.434783      8.000000
  0.478261  0.434783  0.434783     24.000000
  0.478261  0.478261  0.434783     24.000000
  0.478261  0.478261  0.478261      8.000000
 
 Following cartesian coordinates:
            Coordinates               Weight
  0.000000  0.000000  0.000000      1.000000
  0.010765  0.000000  0.000000      6.000000
  0.021530  0.000000  0.000000      6.000000
  0.032294  0.000000  0.000000      6.000000
  0.043059  0.000000  0.000000      6.000000
  0.053824  0.000000  0.000000      6.000000
  0.064589  0.000000  0.000000      6.000000
  0.075354  0.000000  0.000000      6.000000
  0.086118  0.000000  0.000000      6.000000
  0.096883  0.000000  0.000000      6.000000
  0.107648  0.000000  0.000000      6.000000
  0.118413  0.000000  0.000000      6.000000
  0.010765  0.010765  0.000000     12.000000
  0.021530  0.010765  0.000000     24.000000
  0.032294  0.010765  0.000000     24.000000
  0.043059  0.010765  0.000000     24.000000
  0.053824  0.010765  0.000000     24.000000
  0.064589  0.010765  0.000000     24.000000
  0.075354  0.010765  0.000000     24.000000
  0.086118  0.010765  0.000000     24.000000
  0.096883  0.010765  0.000000     24.000000
  0.107648  0.010765  0.000000     24.000000
  0.118413  0.010765  0.000000     24.000000
  0.021530  0.021530  0.000000     12.000000
  0.032294  0.021530  0.000000     24.000000
  0.043059  0.021530  0.000000     24.000000
  0.053824  0.021530  0.000000     24.000000
  0.064589  0.021530  0.000000     24.000000
  0.075354  0.021530  0.000000     24.000000
  0.086118  0.021530  0.000000     24.000000
  0.096883  0.021530  0.000000     24.000000
  0.107648  0.021530  0.000000     24.000000
  0.118413  0.021530  0.000000     24.000000
  0.032294  0.032294  0.000000     12.000000
  0.043059  0.032294  0.000000     24.000000
  0.053824  0.032294  0.000000     24.000000
  0.064589  0.032294  0.000000     24.000000
  0.075354  0.032294  0.000000     24.000000
  0.086118  0.032294  0.000000     24.000000
  0.096883  0.032294  0.000000     24.000000
  0.107648  0.032294  0.000000     24.000000
  0.118413  0.032294  0.000000     24.000000
  0.043059  0.043059  0.000000     12.000000
  0.053824  0.043059  0.000000     24.000000
  0.064589  0.043059  0.000000     24.000000
  0.075354  0.043059  0.000000     24.000000
  0.086118  0.043059  0.000000     24.000000
  0.096883  0.043059  0.000000     24.000000
  0.107648  0.043059  0.000000     24.000000
  0.118413  0.043059  0.000000     24.000000
  0.053824  0.053824  0.000000     12.000000
  0.064589  0.053824  0.000000     24.000000
  0.075354  0.053824  0.000000     24.000000
  0.086118  0.053824  0.000000     24.000000
  0.096883  0.053824  0.000000     24.000000
  0.107648  0.053824  0.000000     24.000000
  0.118413  0.053824  0.000000     24.000000
  0.064589  0.064589  0.000000     12.000000
  0.075354  0.064589  0.000000     24.000000
  0.086118  0.064589  0.000000     24.000000
  0.096883  0.064589  0.000000     24.000000
  0.107648  0.064589  0.000000     24.000000
  0.118413  0.064589  0.000000     24.000000
  0.075354  0.075354  0.000000     12.000000
  0.086118  0.075354  0.000000     24.000000
  0.096883  0.075354  0.000000     24.000000
  0.107648  0.075354  0.000000     24.000000
  0.118413  0.075354  0.000000     24.000000
  0.086118  0.086118  0.000000     12.000000
  0.096883  0.086118  0.000000     24.000000
  0.107648  0.086118  0.000000     24.000000
  0.118413  0.086118  0.000000     24.000000
  0.096883  0.096883  0.000000     12.000000
  0.107648  0.096883  0.000000     24.000000
  0.118413  0.096883  0.000000     24.000000
  0.107648  0.107648  0.000000     12.000000
  0.118413  0.107648  0.000000     24.000000
  0.118413  0.118413  0.000000     12.000000
  0.010765  0.010765  0.010765      8.000000
  0.021530  0.010765  0.010765     24.000000
  0.032294  0.010765  0.010765     24.000000
  0.043059  0.010765  0.010765     24.000000
  0.053824  0.010765  0.010765     24.000000
  0.064589  0.010765  0.010765     24.000000
  0.075354  0.010765  0.010765     24.000000
  0.086118  0.010765  0.010765     24.000000
  0.096883  0.010765  0.010765     24.000000
  0.107648  0.010765  0.010765     24.000000
  0.118413  0.010765  0.010765     24.000000
  0.021530  0.021530  0.010765     24.000000
  0.032294  0.021530  0.010765     48.000000
  0.043059  0.021530  0.010765     48.000000
  0.053824  0.021530  0.010765     48.000000
  0.064589  0.021530  0.010765     48.000000
  0.075354  0.021530  0.010765     48.000000
  0.086118  0.021530  0.010765     48.000000
  0.096883  0.021530  0.010765     48.000000
  0.107648  0.021530  0.010765     48.000000
  0.118413  0.021530  0.010765     48.000000
  0.032294  0.032294  0.010765     24.000000
  0.043059  0.032294  0.010765     48.000000
  0.053824  0.032294  0.010765     48.000000
  0.064589  0.032294  0.010765     48.000000
  0.075354  0.032294  0.010765     48.000000
  0.086118  0.032294  0.010765     48.000000
  0.096883  0.032294  0.010765     48.000000
  0.107648  0.032294  0.010765     48.000000
  0.118413  0.032294  0.010765     48.000000
  0.043059  0.043059  0.010765     24.000000
  0.053824  0.043059  0.010765     48.000000
  0.064589  0.043059  0.010765     48.000000
  0.075354  0.043059  0.010765     48.000000
  0.086118  0.043059  0.010765     48.000000
  0.096883  0.043059  0.010765     48.000000
  0.107648  0.043059  0.010765     48.000000
  0.118413  0.043059  0.010765     48.000000
  0.053824  0.053824  0.010765     24.000000
  0.064589  0.053824  0.010765     48.000000
  0.075354  0.053824  0.010765     48.000000
  0.086118  0.053824  0.010765     48.000000
  0.096883  0.053824  0.010765     48.000000
  0.107648  0.053824  0.010765     48.000000
  0.118413  0.053824  0.010765     48.000000
  0.064589  0.064589  0.010765     24.000000
  0.075354  0.064589  0.010765     48.000000
  0.086118  0.064589  0.010765     48.000000
  0.096883  0.064589  0.010765     48.000000
  0.107648  0.064589  0.010765     48.000000
  0.118413  0.064589  0.010765     48.000000
  0.075354  0.075354  0.010765     24.000000
  0.086118  0.075354  0.010765     48.000000
  0.096883  0.075354  0.010765     48.000000
  0.107648  0.075354  0.010765     48.000000
  0.118413  0.075354  0.010765     48.000000
  0.086118  0.086118  0.010765     24.000000
  0.096883  0.086118  0.010765     48.000000
  0.107648  0.086118  0.010765     48.000000
  0.118413  0.086118  0.010765     48.000000
  0.096883  0.096883  0.010765     24.000000
  0.107648  0.096883  0.010765     48.000000
  0.118413  0.096883  0.010765     48.000000
  0.107648  0.107648  0.010765     24.000000
  0.118413  0.107648  0.010765     48.000000
  0.118413  0.118413  0.010765     24.000000
  0.021530  0.021530  0.021530      8.000000
  0.032294  0.021530  0.021530     24.000000
  0.043059  0.021530  0.021530     24.000000
  0.053824  0.021530  0.021530     24.000000
  0.064589  0.021530  0.021530     24.000000
  0.075354  0.021530  0.021530     24.000000
  0.086118  0.021530  0.021530     24.000000
  0.096883  0.021530  0.021530     24.000000
  0.107648  0.021530  0.021530     24.000000
  0.118413  0.021530  0.021530     24.000000
  0.032294  0.032294  0.021530     24.000000
  0.043059  0.032294  0.021530     48.000000
  0.053824  0.032294  0.021530     48.000000
  0.064589  0.032294  0.021530     48.000000
  0.075354  0.032294  0.021530     48.000000
  0.086118  0.032294  0.021530     48.000000
  0.096883  0.032294  0.021530     48.000000
  0.107648  0.032294  0.021530     48.000000
  0.118413  0.032294  0.021530     48.000000
  0.043059  0.043059  0.021530     24.000000
  0.053824  0.043059  0.021530     48.000000
  0.064589  0.043059  0.021530     48.000000
  0.075354  0.043059  0.021530     48.000000
  0.086118  0.043059  0.021530     48.000000
  0.096883  0.043059  0.021530     48.000000
  0.107648  0.043059  0.021530     48.000000
  0.118413  0.043059  0.021530     48.000000
  0.053824  0.053824  0.021530     24.000000
  0.064589  0.053824  0.021530     48.000000
  0.075354  0.053824  0.021530     48.000000
  0.086118  0.053824  0.021530     48.000000
  0.096883  0.053824  0.021530     48.000000
  0.107648  0.053824  0.021530     48.000000
  0.118413  0.053824  0.021530     48.000000
  0.064589  0.064589  0.021530     24.000000
  0.075354  0.064589  0.021530     48.000000
  0.086118  0.064589  0.021530     48.000000
  0.096883  0.064589  0.021530     48.000000
  0.107648  0.064589  0.021530     48.000000
  0.118413  0.064589  0.021530     48.000000
  0.075354  0.075354  0.021530     24.000000
  0.086118  0.075354  0.021530     48.000000
  0.096883  0.075354  0.021530     48.000000
  0.107648  0.075354  0.021530     48.000000
  0.118413  0.075354  0.021530     48.000000
  0.086118  0.086118  0.021530     24.000000
  0.096883  0.086118  0.021530     48.000000
  0.107648  0.086118  0.021530     48.000000
  0.118413  0.086118  0.021530     48.000000
  0.096883  0.096883  0.021530     24.000000
  0.107648  0.096883  0.021530     48.000000
  0.118413  0.096883  0.021530     48.000000
  0.107648  0.107648  0.021530     24.000000
  0.118413  0.107648  0.021530     48.000000
  0.118413  0.118413  0.021530     24.000000
  0.032294  0.032294  0.032294      8.000000
  0.043059  0.032294  0.032294     24.000000
  0.053824  0.032294  0.032294     24.000000
  0.064589  0.032294  0.032294     24.000000
  0.075354  0.032294  0.032294     24.000000
  0.086118  0.032294  0.032294     24.000000
  0.096883  0.032294  0.032294     24.000000
  0.107648  0.032294  0.032294     24.000000
  0.118413  0.032294  0.032294     24.000000
  0.043059  0.043059  0.032294     24.000000
  0.053824  0.043059  0.032294     48.000000
  0.064589  0.043059  0.032294     48.000000
  0.075354  0.043059  0.032294     48.000000
  0.086118  0.043059  0.032294     48.000000
  0.096883  0.043059  0.032294     48.000000
  0.107648  0.043059  0.032294     48.000000
  0.118413  0.043059  0.032294     48.000000
  0.053824  0.053824  0.032294     24.000000
  0.064589  0.053824  0.032294     48.000000
  0.075354  0.053824  0.032294     48.000000
  0.086118  0.053824  0.032294     48.000000
  0.096883  0.053824  0.032294     48.000000
  0.107648  0.053824  0.032294     48.000000
  0.118413  0.053824  0.032294     48.000000
  0.064589  0.064589  0.032294     24.000000
  0.075354  0.064589  0.032294     48.000000
  0.086118  0.064589  0.032294     48.000000
  0.096883  0.064589  0.032294     48.000000
  0.107648  0.064589  0.032294     48.000000
  0.118413  0.064589  0.032294     48.000000
  0.075354  0.075354  0.032294     24.000000
  0.086118  0.075354  0.032294     48.000000
  0.096883  0.075354  0.032294     48.000000
  0.107648  0.075354  0.032294     48.000000
  0.118413  0.075354  0.032294     48.000000
  0.086118  0.086118  0.032294     24.000000
  0.096883  0.086118  0.032294     48.000000
  0.107648  0.086118  0.032294     48.000000
  0.118413  0.086118  0.032294     48.000000
  0.096883  0.096883  0.032294     24.000000
  0.107648  0.096883  0.032294     48.000000
  0.118413  0.096883  0.032294     48.000000
  0.107648  0.107648  0.032294     24.000000
  0.118413  0.107648  0.032294     48.000000
  0.118413  0.118413  0.032294     24.000000
  0.043059  0.043059  0.043059      8.000000
  0.053824  0.043059  0.043059     24.000000
  0.064589  0.043059  0.043059     24.000000
  0.075354  0.043059  0.043059     24.000000
  0.086118  0.043059  0.043059     24.000000
  0.096883  0.043059  0.043059     24.000000
  0.107648  0.043059  0.043059     24.000000
  0.118413  0.043059  0.043059     24.000000
  0.053824  0.053824  0.043059     24.000000
  0.064589  0.053824  0.043059     48.000000
  0.075354  0.053824  0.043059     48.000000
  0.086118  0.053824  0.043059     48.000000
  0.096883  0.053824  0.043059     48.000000
  0.107648  0.053824  0.043059     48.000000
  0.118413  0.053824  0.043059     48.000000
  0.064589  0.064589  0.043059     24.000000
  0.075354  0.064589  0.043059     48.000000
  0.086118  0.064589  0.043059     48.000000
  0.096883  0.064589  0.043059     48.000000
  0.107648  0.064589  0.043059     48.000000
  0.118413  0.064589  0.043059     48.000000
  0.075354  0.075354  0.043059     24.000000
  0.086118  0.075354  0.043059     48.000000
  0.096883  0.075354  0.043059     48.000000
  0.107648  0.075354  0.043059     48.000000
  0.118413  0.075354  0.043059     48.000000
  0.086118  0.086118  0.043059     24.000000
  0.096883  0.086118  0.043059     48.000000
  0.107648  0.086118  0.043059     48.000000
  0.118413  0.086118  0.043059     48.000000
  0.096883  0.096883  0.043059     24.000000
  0.107648  0.096883  0.043059     48.000000
  0.118413  0.096883  0.043059     48.000000
  0.107648  0.107648  0.043059     24.000000
  0.118413  0.107648  0.043059     48.000000
  0.118413  0.118413  0.043059     24.000000
  0.053824  0.053824  0.053824      8.000000
  0.064589  0.053824  0.053824     24.000000
  0.075354  0.053824  0.053824     24.000000
  0.086118  0.053824  0.053824     24.000000
  0.096883  0.053824  0.053824     24.000000
  0.107648  0.053824  0.053824     24.000000
  0.118413  0.053824  0.053824     24.000000
  0.064589  0.064589  0.053824     24.000000
  0.075354  0.064589  0.053824     48.000000
  0.086118  0.064589  0.053824     48.000000
  0.096883  0.064589  0.053824     48.000000
  0.107648  0.064589  0.053824     48.000000
  0.118413  0.064589  0.053824     48.000000
  0.075354  0.075354  0.053824     24.000000
  0.086118  0.075354  0.053824     48.000000
  0.096883  0.075354  0.053824     48.000000
  0.107648  0.075354  0.053824     48.000000
  0.118413  0.075354  0.053824     48.000000
  0.086118  0.086118  0.053824     24.000000
  0.096883  0.086118  0.053824     48.000000
  0.107648  0.086118  0.053824     48.000000
  0.118413  0.086118  0.053824     48.000000
  0.096883  0.096883  0.053824     24.000000
  0.107648  0.096883  0.053824     48.000000
  0.118413  0.096883  0.053824     48.000000
  0.107648  0.107648  0.053824     24.000000
  0.118413  0.107648  0.053824     48.000000
  0.118413  0.118413  0.053824     24.000000
  0.064589  0.064589  0.064589      8.000000
  0.075354  0.064589  0.064589     24.000000
  0.086118  0.064589  0.064589     24.000000
  0.096883  0.064589  0.064589     24.000000
  0.107648  0.064589  0.064589     24.000000
  0.118413  0.064589  0.064589     24.000000
  0.075354  0.075354  0.064589     24.000000
  0.086118  0.075354  0.064589     48.000000
  0.096883  0.075354  0.064589     48.000000
  0.107648  0.075354  0.064589     48.000000
  0.118413  0.075354  0.064589     48.000000
  0.086118  0.086118  0.064589     24.000000
  0.096883  0.086118  0.064589     48.000000
  0.107648  0.086118  0.064589     48.000000
  0.118413  0.086118  0.064589     48.000000
  0.096883  0.096883  0.064589     24.000000
  0.107648  0.096883  0.064589     48.000000
  0.118413  0.096883  0.064589     48.000000
  0.107648  0.107648  0.064589     24.000000
  0.118413  0.107648  0.064589     48.000000
  0.118413  0.118413  0.064589     24.000000
  0.075354  0.075354  0.075354      8.000000
  0.086118  0.075354  0.075354     24.000000
  0.096883  0.075354  0.075354     24.000000
  0.107648  0.075354  0.075354     24.000000
  0.118413  0.075354  0.075354     24.000000
  0.086118  0.086118  0.075354     24.000000
  0.096883  0.086118  0.075354     48.000000
  0.107648  0.086118  0.075354     48.000000
  0.118413  0.086118  0.075354     48.000000
  0.096883  0.096883  0.075354     24.000000
  0.107648  0.096883  0.075354     48.000000
  0.118413  0.096883  0.075354     48.000000
  0.107648  0.107648  0.075354     24.000000
  0.118413  0.107648  0.075354     48.000000
  0.118413  0.118413  0.075354     24.000000
  0.086118  0.086118  0.086118      8.000000
  0.096883  0.086118  0.086118     24.000000
  0.107648  0.086118  0.086118     24.000000
  0.118413  0.086118  0.086118     24.000000
  0.096883  0.096883  0.086118     24.000000
  0.107648  0.096883  0.086118     48.000000
  0.118413  0.096883  0.086118     48.000000
  0.107648  0.107648  0.086118     24.000000
  0.118413  0.107648  0.086118     48.000000
  0.118413  0.118413  0.086118     24.000000
  0.096883  0.096883  0.096883      8.000000
  0.107648  0.096883  0.096883     24.000000
  0.118413  0.096883  0.096883     24.000000
  0.107648  0.107648  0.096883     24.000000
  0.118413  0.107648  0.096883     48.000000
  0.118413  0.118413  0.096883     24.000000
  0.107648  0.107648  0.107648      8.000000
  0.118413  0.107648  0.107648     24.000000
  0.118413  0.118413  0.107648     24.000000
  0.118413  0.118413  0.118413      8.000000
 


--------------------------------------------------------------------------------------------------------




 Dimension of arrays:
   k-points           NKPTS =    364   k-points in BZ     NKDIM =    364   number of bands    NBANDS=     14
   number of dos      NEDOS =    301   number of ions     NIONS =      4
   non local maximal  LDIM  =      4   non local SUM 2l+1 LMDIM =      8
   total plane-waves  NPLWV =  13824
   max r-space proj   IRMAX =   3607   max aug-charges    IRDMAX=  12761
   dimension x,y,z NGX =    24 NGY =   24 NGZ =   24
   dimension x,y,z NGXF=    48 NGYF=   48 NGZF=   48
   support grid    NGXF=    48 NGYF=   48 NGZF=   48
   ions per type =               4
   NGX,Y,Z   is equivalent  to a cutoff of  11.40, 11.40, 11.40 a.u.
   NGXF,Y,Z  is equivalent  to a cutoff of  22.81, 22.81, 22.81 a.u.

 SYSTEM =  Al fcc relaxation                       
 POSCAR =  Al4                                     

 Startparameter for this run:
   NWRITE =      2    write-flag & timer
   PREC   = accura    normal or accurate (medium, high low for compatibility)
   ISTART =      0    job   : 0-new  1-cont  2-samecut
   ICHARG =      2    charge: 1-file 2-atom 10-const
   ISPIN  =      1    spin polarized calculation?
   LNONCOLLINEAR =      F non collinear calculations
   LSORBIT =      F    spin-orbit coupling
   INIWAV =      1    electr: 0-lowe 1-rand  2-diag
   LASPH  =      F    aspherical Exc in radial PAW
 Electronic Relaxation 1
   ENCUT  =  400.0 eV  29.40 Ry    5.42 a.u.   5.71  5.71  5.71*2*pi/ulx,y,z
   ENINI  =  400.0     initial cutoff
   ENAUG  =  291.1 eV  augmentation charge cutoff
   NELM   =     60;   NELMIN=  4; NELMDL= -5     # of ELM steps 
   EDIFF  = 0.1E-05   stopping-criterion for ELM
   LREAL  =      T    real-space projection
   NLSPLINE    = F    spline interpolate recip. space projectors
   LCOMPAT=      F    compatible to vasp.4.4
   GGA_COMPAT  = T    GGA compatible to vasp.4.4-vasp.4.6
   LMAXPAW     = -100 max onsite density
   LMAXMIX     =    2 max onsite mixed and CHGCAR
   VOSKOWN=      0    Vosko Wilk Nusair interpolation
   ROPT   =   -0.00025
 Ionic relaxation
   EDIFFG = 0.1E-04   stopping-criterion for IOM
   NSW    =    100    number of steps for IOM
   NBLOCK =      1;   KBLOCK =    100    inner block; outer block 
   IBRION =      2    ionic relax: 0-MD 1-quasi-New 2-CG
   NFREE  =      1    steps in history (QN), initial steepest desc. (CG)
   ISIF   =      4    stress and relaxation
   IWAVPR =     11    prediction:  0-non 1-charg 2-wave 3-comb
   ISYM   =      2    0-nonsym 1-usesym 2-fastsym
   LCORR  =      T    Harris-Foulkes like correction to forces

   POTIM  = 0.5000    time-step for ionic-motion
   TEIN   =    0.0    initial temperature
   TEBEG  =    0.0;   TEEND  =   0.0 temperature during run
   SMASS  =  -3.00    Nose mass-parameter (am)
   estimated Nose-frequenzy (Omega)   =  0.10E-29 period in steps = 0.13E+47 mass=  -0.280E-27a.u.
   SCALEE = 1.0000    scale energy and forces
   NPACO  =    256;   APACO  = 10.0  distance and # of slots for P.C.
   PSTRESS=    0.0 pullay stress

  Mass of Ions in am
   POMASS =  26.98
  Ionic Valenz
   ZVAL   =   3.00
  Atomic Wigner-Seitz radii
   RWIGS  =  -1.00
  virtual crystal weights 
   VCA    =   1.00
   NELECT =      12.0000    total number of electrons
   NUPDOWN=      -1.0000    fix difference up-down

 DOS related values:
   EMIN   =  10.00;   EMAX   =-10.00  energy-range for DOS
   EFERMI =   0.00;   METHOD = LEGACY      
   ISMEAR =     1;   SIGMA  =   0.20  broadening in eV -4-tet -1-fermi 0-gaus

 Electronic relaxation 2 (details)
   IALGO  =     68    algorithm
   LDIAG  =      T    sub-space diagonalisation (order eigenvalues)
   LSUBROT=      F    optimize rotation matrix (better conditioning)
   TURBO    =      0    0=normal 1=particle mesh
   IRESTART =      0    0=no restart 2=restart with 2 vectors
   NREBOOT  =      0    no. of reboots
   NMIN     =      0    reboot dimension
   EREF     =   0.00    reference energy to select bands
   IMIX   =      4    mixing-type and parameters
     AMIX     =   0.40;   BMIX     =  1.00
     AMIX_MAG =   1.60;   BMIX_MAG =  1.00
     AMIN     =   0.10
     WC   =   100.;   INIMIX=   1;  MIXPRE=   1;  MAXMIX= -45

 Intra band minimization:
   WEIMIN = 0.0010     energy-eigenvalue tresh-hold
   EBREAK =  0.18E-07  absolut break condition
   DEPER  =   0.30     relativ break condition  

   TIME   =   0.40     timestep for ELM

  volume/ion in A,a.u.               =      10.71        72.25
  Fermi-wavevector in a.u.,A,eV,Ry     =   1.071267  2.024402 15.614230  1.147614
  Thomas-Fermi vector in A             =   2.207002

 Write flags
   LWAVE        =      F    write WAVECAR
   LDOWNSAMPLE  =      F    k-point downsampling of WAVECAR
   LCHARG       =      F    write CHGCAR
   LVTOT        =      F    write LOCPOT, total local potential
   LVHAR        =      F    write LOCPOT, Hartree potential only
   LELF         =      F    write electronic localiz. function (ELF)
   LORBIT       =      0    0 simple, 1 ext, 2 COOP (PROOUT), +10 PAW based schemes


 Dipole corrections
   LMONO  =      F    monopole corrections only (constant potential shift)
   LDIPOL =      F    correct potential (dipole corrections)
   IDIPOL =      0    1-x, 2-y, 3-z, 4-all directions 
   EPSILON=  1.0000000 bulk dielectric constant

 Exchange correlation treatment:
   GGA     =    --    GGA type
   LEXCH   =     8    internal setting for exchange type
   LIBXC   =     F    Libxc                    
   VOSKOWN =     0    Vosko Wilk Nusair interpolation
   LHFCALC =     F    Hartree Fock is set to
   LHFONE  =     F    Hartree Fock one center treatment
   AEXX    =    0.0000 exact exchange contribution

 Linear response parameters
   LEPSILON=     F    determine dielectric tensor
   LRPA    =     F    only Hartree local field effects (RPA)
   LNABLA  =     F    use nabla operator in PAW spheres
   LVEL    =     F    velocity operator in full k-point grid
   CSHIFT  =0.1000    complex shift for real part using Kramers Kronig
   OMEGAMAX=  -1.0    maximum frequency
   DEG_THRESHOLD= 0.2000000E-02 threshold for treating states as degnerate
   RTIME   =   -0.100 relaxation time in fs
  (WPLASMAI=    0.000 imaginary part of plasma frequency in eV, 0.658/RTIME)
   DFIELD  = 0.0000000 0.0000000 0.0000000 field for delta impulse in time

  Optional k-point grid parameters
   LKPOINTS_OPT  =     F    use optional k-point grid
   KPOINTS_OPT_MODE=     1    mode for optional k-point grid

 Orbital magnetization related:
   ORBITALMAG=     F  switch on orbital magnetization
   LCHIMAG   =     F  perturbation theory with respect to B field
   DQ        =  0.001000  dq finite difference perturbation B field
   LLRAUG    =     F  two centre corrections for induced B field
   LBONE     =     F  B-component reconstruction in AE one-centre
   LVGVCALC  =     T  calculate vGv susceptibility
   LVGVAPPL  =     F  apply vGv susceptibility instead of pGv for G=0

 Random number generation:
   RANDOM_GENERATOR = DEFAULT
   PCG_SEED         = not used


--------------------------------------------------------------------------------------------------------


 conjugate gradient relaxation of ions
 charge density and potential will be updated during run
 non-spin polarized calculation
 RMM-DIIS sequential band-by-band and
  variant of blocked Davidson during initial phase
 perform sub-space diagonalisation
    before iterative eigenvector-optimisation
 modified Broyden-mixing scheme, WC =      100.0
 initial mixing is a Kerker type mixing with AMIX =  0.4000 and BMIX =      1.0000
 Hartree-type preconditioning will be used
 using additional bands            8
 real space projection scheme for non local part
 use partial core corrections
 calculate Harris-corrections to forces   (improved forces if not selfconsistent)
 use gradient corrections 
 use of overlap-Matrix (Vanderbilt PP)
 Methfessel and Paxton  Order N= 1 SIGMA  =   0.20


--------------------------------------------------------------------------------------------------------


  energy-cutoff  :      400.00
  volume of cell :       42.83
      direct lattice vectors                 reciprocal lattice vectors
     3.498678844  0.000000000  0.000000000     0.285822176  0.000000000 -0.000000000
    -0.000000000  3.498678844  0.000000000     0.000000000  0.285822176  0.000000000
     0.000000000  0.000000000  3.498678844    -0.000000000 -0.000000000  0.285822176

  length of vectors
     3.498678844  3.498678844  3.498678844     0.285822176  0.285822176  0.285822176



 k-points in units of 2pi/SCALE and weight: Automatic kpoint scheme                 
   0.00000000  0.00000000  0.00000000       0.000
   0.01076480  0.00000000  0.00000000       0.000
   0.02152960  0.00000000  0.00000000       0.000
   0.03229439  0.00000000  0.00000000       0.000
   0.04305919  0.00000000  0.00000000       0.000
   0.05382399  0.00000000  0.00000000       0.000
   0.06458879  0.00000000  0.00000000       0.000
   0.07535358  0.00000000  0.00000000       0.000
   0.08611838  0.00000000  0.00000000       0.000
   0.09688318  0.00000000  0.00000000       0.000
   0.10764798  0.00000000  0.00000000       0.000
   0.11841277  0.00000000  0.00000000       0.000
   0.01076480  0.01076480  0.00000000       0.001
   0.02152960  0.01076480  0.00000000       0.002
   0.03229439  0.01076480  0.00000000       0.002
   0.04305919  0.01076480  0.00000000       0.002
   0.05382399  0.01076480  0.00000000       0.002
   0.06458879  0.01076480  0.00000000       0.002
   0.07535358  0.01076480  0.00000000       0.002
   0.08611838  0.01076480  0.00000000       0.002
   0.09688318  0.01076480  0.00000000       0.002
   0.10764798  0.01076480  0.00000000       0.002
   0.11841277  0.01076480  0.00000000       0.002
   0.02152960  0.02152960  0.00000000       0.001
   0.03229439  0.02152960  0.00000000       0.002
   0.04305919  0.02152960  0.00000000       0.002
   0.05382399  0.02152960  0.00000000       0.002
   0.06458879  0.02152960  0.00000000       0.002
   0.07535358  0.02152960  0.00000000       0.002
   0.08611838  0.02152960  0.00000000       0.002
   0.09688318  0.02152960  0.00000000       0.002
   0.10764798  0.02152960  0.00000000       0.002
   0.11841277  0.02152960  0.00000000       0.002
   0.03229439  0.03229439  0.00000000       0.001
   0.04305919  0.03229439  0.00000000       0.002
   0.05382399  0.03229439  0.00000000       0.002
   0.06458879  0.03229439  0.00000000       0.002
   0.07535358  0.03229439  0.00000000       0.002
   0.08611838  0.03229439  0.00000000       0.002
   0.09688318  0.03229439  0.00000000       0.002
   0.10764798  0.03229439  0.00000000       0.002
   0.11841277  0.03229439  0.00000000       0.002
   0.04305919  0.04305919  0.00000000       0.001
   0.05382399  0.04305919  0.00000000       0.002
   0.06458879  0.04305919  0.00000000       0.002
   0.07535358  0.04305919  0.00000000       0.002
   0.08611838  0.04305919  0.00000000       0.002
   0.09688318  0.04305919  0.00000000       0.002
   0.10764798  0.04305919  0.00000000       0.002
   0.11841277  0.04305919  0.00000000       0.002
   0.05382399  0.05382399  0.00000000       0.001
   0.06458879  0.05382399  0.00000000       0.002
   0.07535358  0.05382399  0.00000000       0.002
   0.08611838  0.05382399  0.00000000       0.002
   0.09688318  0.05382399  0.00000000       0.002
   0.10764798  0.05382399  0.00000000       0.002
   0.11841277  0.05382399  0.00000000       0.002
   0.06458879  0.06458879  0.00000000       0.001
   0.07535358  0.06458879  0.00000000       0.002
   0.08611838  0.06458879  0.00000000       0.002
   0.09688318  0.06458879  0.00000000       0.002
   0.10764798  0.06458879  0.00000000       0.002
   0.11841277  0.06458879  0.00000000       0.002
   0.07535358  0.07535358  0.00000000       0.001
   0.08611838  0.07535358  0.00000000       0.002
   0.09688318  0.07535358  0.00000000       0.002
   0.10764798  0.07535358  0.00000000       0.002
   0.11841277  0.07535358  0.00000000       0.002
   0.08611838  0.08611838  0.00000000       0.001
   0.09688318  0.08611838  0.00000000       0.002
   0.10764798  0.08611838  0.00000000       0.002
   0.11841277  0.08611838  0.00000000       0.002
   0.09688318  0.09688318  0.00000000       0.001
   0.10764798  0.09688318  0.00000000       0.002
   0.11841277  0.09688318  0.00000000       0.002
   0.10764798  0.10764798  0.00000000       0.001
   0.11841277  0.10764798  0.00000000       0.002
   0.11841277  0.11841277  0.00000000       0.001
   0.01076480  0.01076480  0.01076480       0.001
   0.02152960  0.01076480  0.01076480       0.002
   0.03229439  0.01076480  0.01076480       0.002
   0.04305919  0.01076480  0.01076480       0.002
   0.05382399  0.01076480  0.01076480       0.002
   0.06458879  0.01076480  0.01076480       0.002
   0.07535358  0.01076480  0.01076480       0.002
   0.08611838  0.01076480  0.01076480       0.002
   0.09688318  0.01076480  0.01076480       0.002
   0.10764798  0.01076480  0.01076480       0.002
   0.11841277  0.01076480  0.01076480       0.002
   0.02152960  0.02152960  0.01076480       0.002
   0.03229439  0.02152960  0.01076480       0.004
   0.04305919  0.02152960  0.01076480       0.004
   0.05382399  0.02152960  0.01076480       0.004
   0.06458879  0.02152960  0.01076480       0.004
   0.07535358  0.02152960  0.01076480       0.004
   0.08611838  0.02152960  0.01076480       0.004
   0.09688318  0.02152960  0.01076480       0.004
   0.10764798  0.02152960  0.01076480       0.004
   0.11841277  0.02152960  0.01076480       0.004
   0.03229439  0.03229439  0.01076480       0.002
   0.04305919  0.03229439  0.01076480       0.004
   0.05382399  0.03229439  0.01076480       0.004
   0.06458879  0.03229439  0.01076480       0.004
   0.07535358  0.03229439  0.01076480       0.004
   0.08611838  0.03229439  0.01076480       0.004
   0.09688318  0.03229439  0.01076480       0.004
   0.10764798  0.03229439  0.01076480       0.004
   0.11841277  0.03229439  0.01076480       0.004
   0.04305919  0.04305919  0.01076480       0.002
   0.05382399  0.04305919  0.01076480       0.004
   0.06458879  0.04305919  0.01076480       0.004
   0.07535358  0.04305919  0.01076480       0.004
   0.08611838  0.04305919  0.01076480       0.004
   0.09688318  0.04305919  0.01076480       0.004
   0.10764798  0.04305919  0.01076480       0.004
   0.11841277  0.04305919  0.01076480       0.004
   0.05382399  0.05382399  0.01076480       0.002
   0.06458879  0.05382399  0.01076480       0.004
   0.07535358  0.05382399  0.01076480       0.004
   0.08611838  0.05382399  0.01076480       0.004
   0.09688318  0.05382399  0.01076480       0.004
   0.10764798  0.05382399  0.01076480       0.004
   0.11841277  0.05382399  0.01076480       0.004
   0.06458879  0.06458879  0.01076480       0.002
   0.07535358  0.06458879  0.01076480       0.004
   0.08611838  0.06458879  0.01076480       0.004
   0.09688318  0.06458879  0.01076480       0.004
   0.10764798  0.06458879  0.01076480       0.004
   0.11841277  0.06458879  0.01076480       0.004
   0.07535358  0.07535358  0.01076480       0.002
   0.08611838  0.07535358  0.01076480       0.004
   0.09688318  0.07535358  0.01076480       0.004
   0.10764798  0.07535358  0.01076480       0.004
   0.11841277  0.07535358  0.01076480       0.004
   0.08611838  0.08611838  0.01076480       0.002
   0.09688318  0.08611838  0.01076480       0.004
   0.10764798  0.08611838  0.01076480       0.004
   0.11841277  0.08611838  0.01076480       0.004
   0.09688318  0.09688318  0.01076480       0.002
   0.10764798  0.09688318  0.01076480       0.004
   0.11841277  0.09688318  0.01076480       0.004
   0.10764798  0.10764798  0.01076480       0.002
   0.11841277  0.10764798  0.01076480       0.004
   0.11841277  0.11841277  0.01076480       0.002
   0.02152960  0.02152960  0.02152960       0.001
   0.03229439  0.02152960  0.02152960       0.002
   0.04305919  0.02152960  0.02152960       0.002
   0.05382399  0.02152960  0.02152960       0.002
   0.06458879  0.02152960  0.02152960       0.002
   0.07535358  0.02152960  0.02152960       0.002
   0.08611838  0.02152960  0.02152960       0.002
   0.09688318  0.02152960  0.02152960       0.002
   0.10764798  0.02152960  0.02152960       0.002
   0.11841277  0.02152960  0.02152960       0.002
   0.03229439  0.03229439  0.02152960       0.002
   0.04305919  0.03229439  0.02152960       0.004
   0.05382399  0.03229439  0.02152960       0.004
   0.06458879  0.03229439  0.02152960       0.004
   0.07535358  0.03229439  0.02152960       0.004
   0.08611838  0.03229439  0.02152960       0.004
   0.09688318  0.03229439  0.02152960       0.004
   0.10764798  0.03229439  0.02152960       0.004
   0.11841277  0.03229439  0.02152960       0.004
   0.04305919  0.04305919  0.02152960       0.002
   0.05382399  0.04305919  0.02152960       0.004
   0.06458879  0.04305919  0.02152960       0.004
   0.07535358  0.04305919  0.02152960       0.004
   0.08611838  0.04305919  0.02152960       0.004
   0.09688318  0.04305919  0.02152960       0.004
   0.10764798  0.04305919  0.02152960       0.004
   0.11841277  0.04305919  0.02152960       0.004
   0.05382399  0.05382399  0.02152960       0.002
   0.06458879  0.05382399  0.02152960       0.004
   0.07535358  0.05382399  0.02152960       0.004
   0.08611838  0.05382399  0.02152960       0.004
   0.09688318  0.05382399  0.02152960       0.004
   0.10764798  0.05382399  0.02152960       0.004
   0.11841277  0.05382399  0.02152960       0.004
   0.06458879  0.06458879  0.02152960       0.002
   0.07535358  0.06458879  0.02152960       0.004
   0.08611838  0.06458879  0.02152960       0.004
   0.09688318  0.06458879  0.02152960       0.004
   0.10764798  0.06458879  0.02152960       0.004
   0.11841277  0.06458879  0.02152960       0.004
   0.07535358  0.07535358  0.02152960       0.002
   0.08611838  0.07535358  0.02152960       0.004
   0.09688318  0.07535358  0.02152960       0.004
   0.10764798  0.07535358  0.02152960       0.004
   0.11841277  0.07535358  0.02152960       0.004
   0.08611838  0.08611838  0.02152960       0.002
   0.09688318  0.08611838  0.02152960       0.004
   0.10764798  0.08611838  0.02152960       0.004
   0.11841277  0.08611838  0.02152960       0.004
   0.09688318  0.09688318  0.02152960       0.002
   0.10764798  0.09688318  0.02152960       0.004
   0.11841277  0.09688318  0.02152960       0.004
   0.10764798  0.10764798  0.02152960       0.002
   0.11841277  0.10764798  0.02152960       0.004
   0.11841277  0.11841277  0.02152960       0.002
   0.03229439  0.03229439  0.03229439       0.001
   0.04305919  0.03229439  0.03229439       0.002
   0.05382399  0.03229439  0.03229439       0.002
   0.06458879  0.03229439  0.03229439       0.002
   0.07535358  0.03229439  0.03229439       0.002
   0.08611838  0.03229439  0.03229439       0.002
   0.09688318  0.03229439  0.03229439       0.002
   0.10764798  0.03229439  0.03229439       0.002
   0.11841277  0.03229439  0.03229439       0.002
   0.04305919  0.04305919  0.03229439       0.002
   0.05382399  0.04305919  0.03229439       0.004
   0.06458879  0.04305919  0.03229439       0.004
   0.07535358  0.04305919  0.03229439       0.004
   0.08611838  0.04305919  0.03229439       0.004
   0.09688318  0.04305919  0.03229439       0.004
   0.10764798  0.04305919  0.03229439       0.004
   0.11841277  0.04305919  0.03229439       0.004
   0.05382399  0.05382399  0.03229439       0.002
   0.06458879  0.05382399  0.03229439       0.004
   0.07535358  0.05382399  0.03229439       0.004
   0.08611838  0.05382399  0.03229439       0.004
   0.09688318  0.05382399  0.03229439       0.004
   0.10764798  0.05382399  0.03229439       0.004
   0.11841277  0.05382399  0.03229439       0.004
   0.06458879  0.06458879  0.03229439       0.002
   0.07535358  0.06458879  0.03229439       0.004
   0.08611838  0.06458879  0.03229439       0.004
   0.09688318  0.06458879  0.03229439       0.004
   0.10764798  0.06458879  0.03229439       0.004
   0.11841277  0.06458879  0.03229439       0.004
   0.07535358  0.07535358  0.03229439       0.002
   0.08611838  0.07535358  0.03229439       0.004
   0.09688318  0.07535358  0.03229439       0.004
   0.10764798  0.07535358  0.03229439       0.004
   0.11841277  0.07535358  0.03229439       0.004
   0.08611838  0.08611838  0.03229439       0.002
   0.09688318  0.08611838  0.03229439       0.004
   0.10764798  0.08611838  0.03229439       0.004
   0.11841277  0.08611838  0.03229439       0.004
   0.09688318  0.09688318  0.03229439       0.002
   0.10764798  0.09688318  0.03229439       0.004
   0.11841277  0.09688318  0.03229439       0.004
   0.10764798  0.10764798  0.03229439       0.002
   0.11841277  0.10764798  0.03229439       0.004
   0.11841277  0.11841277  0.03229439       0.002
   0.04305919  0.04305919  0.04305919       0.001
   0.05382399  0.04305919  0.04305919       0.002
   0.06458879  0.04305919  0.04305919       0.002
   0.07535358  0.04305919  0.04305919       0.002
   0.08611838  0.04305919  0.04305919       0.002
   0.09688318  0.04305919  0.04305919       0.002
   0.10764798  0.04305919  0.04305919       0.002
   0.11841277  0.04305919  0.04305919       0.002
   0.05382399  0.05382399  0.04305919       0.002
   0.06458879  0.05382399  0.04305919       0.004
   0.07535358  0.05382399  0.04305919       0.004
   0.08611838  0.05382399  0.04305919       0.004
   0.09688318  0.05382399  0.04305919       0.004
   0.10764798  0.05382399  0.04305919       0.004
   0.11841277  0.05382399  0.04305919       0.004
   0.06458879  0.06458879  0.04305919       0.002
   0.07535358  0.06458879  0.04305919       0.004
   0.08611838  0.06458879  0.04305919       0.004
   0.09688318  0.06458879  0.04305919       0.004
   0.10764798  0.06458879  0.04305919       0.004
   0.11841277  0.06458879  0.04305919       0.004
   0.07535358  0.07535358  0.04305919       0.002
   0.08611838  0.07535358  0.04305919       0.004
   0.09688318  0.07535358  0.04305919       0.004
   0.10764798  0.07535358  0.04305919       0.004
   0.11841277  0.07535358  0.04305919       0.004
   0.08611838  0.08611838  0.04305919       0.002
   0.09688318  0.08611838  0.04305919       0.004
   0.10764798  0.08611838  0.04305919       0.004
   0.11841277  0.08611838  0.04305919       0.004
   0.09688318  0.09688318  0.04305919       0.002
   0.10764798  0.09688318  0.04305919       0.004
   0.11841277  0.09688318  0.04305919       0.004
   0.10764798  0.10764798  0.04305919       0.002
   0.11841277  0.10764798  0.04305919       0.004
   0.11841277  0.11841277  0.04305919       0.002
   0.05382399  0.05382399  0.05382399       0.001
   0.06458879  0.05382399  0.05382399       0.002
   0.07535358  0.05382399  0.05382399       0.002
   0.08611838  0.05382399  0.05382399       0.002
   0.09688318  0.05382399  0.05382399       0.002
   0.10764798  0.05382399  0.05382399       0.002
   0.11841277  0.05382399  0.05382399       0.002
   0.06458879  0.06458879  0.05382399       0.002
   0.07535358  0.06458879  0.05382399       0.004
   0.08611838  0.06458879  0.05382399       0.004
   0.09688318  0.06458879  0.05382399       0.004
   0.10764798  0.06458879  0.05382399       0.004
   0.11841277  0.06458879  0.05382399       0.004
   0.07535358  0.07535358  0.05382399       0.002
   0.08611838  0.07535358  0.05382399       0.004
   0.09688318  0.07535358  0.05382399       0.004
   0.10764798  0.07535358  0.05382399       0.004
   0.11841277  0.07535358  0.05382399       0.004
   0.08611838  0.08611838  0.05382399       0.002
   0.09688318  0.08611838  0.05382399       0.004
   0.10764798  0.08611838  0.05382399       0.004
   0.11841277  0.08611838  0.05382399       0.004
   0.09688318  0.09688318  0.05382399       0.002
   0.10764798  0.09688318  0.05382399       0.004
   0.11841277  0.09688318  0.05382399       0.004
   0.10764798  0.10764798  0.05382399       0.002
   0.11841277  0.10764798  0.05382399       0.004
   0.11841277  0.11841277  0.05382399       0.002
   0.06458879  0.06458879  0.06458879       0.001
   0.07535358  0.06458879  0.06458879       0.002
   0.08611838  0.06458879  0.06458879       0.002
   0.09688318  0.06458879  0.06458879       0.002
   0.10764798  0.06458879  0.06458879       0.002
   0.11841277  0.06458879  0.06458879       0.002
   0.07535358  0.07535358  0.06458879       0.002
   0.08611838  0.07535358  0.06458879       0.004
   0.09688318  0.07535358  0.06458879       0.004
   0.10764798  0.07535358  0.06458879       0.004
   0.11841277  0.07535358  0.06458879       0.004
   0.08611838  0.08611838  0.06458879       0.002
   0.09688318  0.08611838  0.06458879       0.004
   0.10764798  0.08611838  0.06458879       0.004
   0.11841277  0.08611838  0.06458879       0.004
   0.09688318  0.09688318  0.06458879       0.002
   0.10764798  0.09688318  0.06458879       0.004
   0.11841277  0.09688318  0.06458879       0.004
   0.10764798  0.10764798  0.06458879       0.002
   0.11841277  0.10764798  0.06458879       0.004
   0.11841277  0.11841277  0.06458879       0.002
   0.07535358  0.07535358  0.07535358       0.001
   0.08611838  0.07535358  0.07535358       0.002
   0.09688318  0.07535358  0.07535358       0.002
   0.10764798  0.07535358  0.07535358       0.002
   0.11841277  0.07535358  0.07535358       0.002
   0.08611838  0.08611838  0.07535358       0.002
   0.09688318  0.08611838  0.07535358       0.004
   0.10764798  0.08611838  0.07535358       0.004
   0.11841277  0.08611838  0.07535358       0.004
   0.09688318  0.09688318  0.07535358       0.002
   0.10764798  0.09688318  0.07535358       0.004
   0.11841277  0.09688318  0.07535358       0.004
   0.10764798  0.10764798  0.07535358       0.002
   0.11841277  0.10764798  0.07535358       0.004
   0.11841277  0.11841277  0.07535358       0.002
   0.08611838  0.08611838  0.08611838       0.001
   0.09688318  0.08611838  0.08611838       0.002
   0.10764798  0.08611838  0.08611838       0.002
   0.11841277  0.08611838  0.08611838       0.002
   0.09688318  0.09688318  0.08611838       0.002
   0.10764798  0.09688318  0.08611838       0.004
   0.11841277  0.09688318  0.08611838       0.004
   0.10764798  0.10764798  0.08611838       0.002
   0.11841277  0.10764798  0.08611838       0.004
   0.11841277  0.11841277  0.08611838       0.002
   0.09688318  0.09688318  0.09688318       0.001
   0.10764798  0.09688318  0.09688318       0.002
   0.11841277  0.09688318  0.09688318       0.002
   0.10764798  0.10764798  0.09688318       0.002
   0.11841277  0.10764798  0.09688318       0.004
   0.11841277  0.11841277  0.09688318       0.002
   0.10764798  0.10764798  0.10764798       0.001
   0.11841277  0.10764798  0.10764798       0.002
   0.11841277  0.11841277  0.10764798       0.002
   0.11841277  0.11841277  0.11841277       0.001

 k-points in reciprocal lattice and weights: Automatic kpoint scheme                 
   0.00000000  0.00000000  0.00000000       0.000
   0.04347826  0.00000000  0.00000000       0.000
   0.08695652  0.00000000  0.00000000       0.000
   0.13043478  0.00000000  0.00000000       0.000
   0.17391304  0.00000000  0.00000000       0.000
   0.21739130  0.00000000  0.00000000       0.000
   0.26086957  0.00000000  0.00000000       0.000
   0.30434783  0.00000000  0.00000000       0.000
   0.34782609  0.00000000  0.00000000       0.000
   0.39130435  0.00000000  0.00000000       0.000
   0.43478261  0.00000000  0.00000000       0.000
   0.47826087  0.00000000  0.00000000       0.000
   0.04347826  0.04347826  0.00000000       0.001
   0.08695652  0.04347826  0.00000000       0.002
   0.13043478  0.04347826  0.00000000       0.002
   0.17391304  0.04347826  0.00000000       0.002
   0.21739130  0.04347826  0.00000000       0.002
   0.26086957  0.04347826  0.00000000       0.002
   0.30434783  0.04347826  0.00000000       0.002
   0.34782609  0.04347826  0.00000000       0.002
   0.39130435  0.04347826  0.00000000       0.002
   0.43478261  0.04347826  0.00000000       0.002
   0.47826087  0.04347826  0.00000000       0.002
   0.08695652  0.08695652  0.00000000       0.001
   0.13043478  0.08695652  0.00000000       0.002
   0.17391304  0.08695652  0.00000000       0.002
   0.21739130  0.08695652  0.00000000       0.002
   0.26086957  0.08695652  0.00000000       0.002
   0.30434783  0.08695652  0.00000000       0.002
   0.34782609  0.08695652  0.00000000       0.002
   0.39130435  0.08695652  0.00000000       0.002
   0.43478261  0.08695652  0.00000000       0.002
   0.47826087  0.08695652  0.00000000       0.002
   0.13043478  0.13043478  0.00000000       0.001
   0.17391304  0.13043478  0.00000000       0.002
   0.21739130  0.13043478  0.00000000       0.002
   0.26086957  0.13043478  0.00000000       0.002
   0.30434783  0.13043478  0.00000000       0.002
   0.34782609  0.13043478  0.00000000       0.002
   0.39130435  0.13043478  0.00000000       0.002
   0.43478261  0.13043478  0.00000000       0.002
   0.47826087  0.13043478  0.00000000       0.002
   0.17391304  0.17391304  0.00000000       0.001
   0.21739130  0.17391304  0.00000000       0.002
   0.26086957  0.17391304  0.00000000       0.002
   0.30434783  0.17391304  0.00000000       0.002
   0.34782609  0.17391304  0.00000000       0.002
   0.39130435  0.17391304  0.00000000       0.002
   0.43478261  0.17391304  0.00000000       0.002
   0.47826087  0.17391304  0.00000000       0.002
   0.21739130  0.21739130  0.00000000       0.001
   0.26086957  0.21739130  0.00000000       0.002
   0.30434783  0.21739130  0.00000000       0.002
   0.34782609  0.21739130  0.00000000       0.002
   0.39130435  0.21739130  0.00000000       0.002
   0.43478261  0.21739130  0.00000000       0.002
   0.47826087  0.21739130  0.00000000       0.002
   0.26086957  0.26086957  0.00000000       0.001
   0.30434783  0.26086957  0.00000000       0.002
   0.34782609  0.26086957  0.00000000       0.002
   0.39130435  0.26086957  0.00000000       0.002
   0.43478261  0.26086957  0.00000000       0.002
   0.47826087  0.26086957  0.00000000       0.002
   0.30434783  0.30434783  0.00000000       0.001
   0.34782609  0.30434783  0.00000000       0.002
   0.39130435  0.30434783  0.00000000       0.002
   0.43478261  0.30434783  0.00000000       0.002
   0.47826087  0.30434783  0.00000000       0.002
   0.34782609  0.34782609  0.00000000       0.001
   0.39130435  0.34782609  0.00000000       0.002
   0.43478261  0.34782609  0.00000000       0.002
   0.47826087  0.34782609  0.00000000       0.002
   0.39130435  0.39130435  0.00000000       0.001
   0.43478261  0.39130435  0.00000000       0.002
   0.47826087  0.39130435  0.00000000       0.002
   0.43478261  0.43478261  0.00000000       0.001
   0.47826087  0.43478261  0.00000000       0.002
   0.47826087  0.47826087  0.00000000       0.001
   0.04347826  0.04347826  0.04347826       0.001
   0.08695652  0.04347826  0.04347826       0.002
   0.13043478  0.04347826  0.04347826       0.002
   0.17391304  0.04347826  0.04347826       0.002
   0.21739130  0.04347826  0.04347826       0.002
   0.26086957  0.04347826  0.04347826       0.002
   0.30434783  0.04347826  0.04347826       0.002
   0.34782609  0.04347826  0.04347826       0.002
   0.39130435  0.04347826  0.04347826       0.002
   0.43478261  0.04347826  0.04347826       0.002
   0.47826087  0.04347826  0.04347826       0.002
   0.08695652  0.08695652  0.04347826       0.002
   0.13043478  0.08695652  0.04347826       0.004
   0.17391304  0.08695652  0.04347826       0.004
   0.21739130  0.08695652  0.04347826       0.004
   0.26086957  0.08695652  0.04347826       0.004
   0.30434783  0.08695652  0.04347826       0.004
   0.34782609  0.08695652  0.04347826       0.004
   0.39130435  0.08695652  0.04347826       0.004
   0.43478261  0.08695652  0.04347826       0.004
   0.47826087  0.08695652  0.04347826       0.004
   0.13043478  0.13043478  0.04347826       0.002
   0.17391304  0.13043478  0.04347826       0.004
   0.21739130  0.13043478  0.04347826       0.004
   0.26086957  0.13043478  0.04347826       0.004
   0.30434783  0.13043478  0.04347826       0.004
   0.34782609  0.13043478  0.04347826       0.004
   0.39130435  0.13043478  0.04347826       0.004
   0.43478261  0.13043478  0.04347826       0.004
   0.47826087  0.13043478  0.04347826       0.004
   0.17391304  0.17391304  0.04347826       0.002
   0.21739130  0.17391304  0.04347826       0.004
   0.26086957  0.17391304  0.04347826       0.004
   0.30434783  0.17391304  0.04347826       0.004
   0.34782609  0.17391304  0.04347826       0.004
   0.39130435  0.17391304  0.04347826       0.004
   0.43478261  0.17391304  0.04347826       0.004
   0.47826087  0.17391304  0.04347826       0.004
   0.21739130  0.21739130  0.04347826       0.002
   0.26086957  0.21739130  0.04347826       0.004
   0.30434783  0.21739130  0.04347826       0.004
   0.34782609  0.21739130  0.04347826       0.004
   0.39130435  0.21739130  0.04347826       0.004
   0.43478261  0.21739130  0.04347826       0.004
   0.47826087  0.21739130  0.04347826       0.004
   0.26086957  0.26086957  0.04347826       0.002
   0.30434783  0.26086957  0.04347826       0.004
   0.34782609  0.26086957  0.04347826       0.004
   0.39130435  0.26086957  0.04347826       0.004
   0.43478261  0.26086957  0.04347826       0.004
   0.47826087  0.26086957  0.04347826       0.004
   0.30434783  0.30434783  0.04347826       0.002
   0.34782609  0.30434783  0.04347826       0.004
   0.39130435  0.30434783  0.04347826       0.004
   0.43478261  0.30434783  0.04347826       0.004
   0.47826087  0.30434783  0.04347826       0.004
   0.34782609  0.34782609  0.04347826       0.002
   0.39130435  0.34782609  0.04347826       0.004
   0.43478261  0.34782609  0.04347826       0.004
   0.47826087  0.34782609  0.04347826       0.004
   0.39130435  0.39130435  0.04347826       0.002
   0.43478261  0.39130435  0.04347826       0.004
   0.47826087  0.39130435  0.04347826       0.004
   0.43478261  0.43478261  0.04347826       0.002
   0.47826087  0.43478261  0.04347826       0.004
   0.47826087  0.47826087  0.04347826       0.002
   0.08695652  0.08695652  0.08695652       0.001
   0.13043478  0.08695652  0.08695652       0.002
   0.17391304  0.08695652  0.08695652       0.002
   0.21739130  0.08695652  0.08695652       0.002
   0.26086957  0.08695652  0.08695652       0.002
   0.30434783  0.08695652  0.08695652       0.002
   0.34782609  0.08695652  0.08695652       0.002
   0.39130435  0.08695652  0.08695652       0.002
   0.43478261  0.08695652  0.08695652       0.002
   0.47826087  0.08695652  0.08695652       0.002
   0.13043478  0.13043478  0.08695652       0.002
   0.17391304  0.13043478  0.08695652       0.004
   0.21739130  0.13043478  0.08695652       0.004
   0.26086957  0.13043478  0.08695652       0.004
[...]

 k-point   343 :       0.4783    0.4348    0.3043
  band No.  band energies     occupation 
      1       4.8143      2.00000
      2       5.2941      2.00000
      3       6.2261      2.00000
      4       6.6646      2.00000
      5       9.4401      2.00000
      6       9.8696      2.00000
      7      10.7752      2.00000
      8      11.2379      2.00000
      9      22.4978      0.00000
     10      22.8708      0.00000
     11      23.7711      0.00000
     12      24.2781      0.00000
     13      25.6102      0.00000
     14      25.7309      0.00000

 k-point   344 :       0.4783    0.4783    0.3043
  band No.  band energies     occupation 
      1       5.2520      2.00000
      2       5.7243      2.00000
      3       5.7243      2.00000
      4       6.1847      2.00000
      5       9.8295      2.00000
      6      10.2780      2.00000
      7      10.2780      2.00000
      8      10.7357      2.00000
      9      22.9381      0.00000
     10      23.3628      0.00000
     11      23.3628      0.00000
     12      23.8273      0.00000
     13      26.2500      0.00000
     14      26.3868      0.00000

 k-point   345 :       0.3478    0.3478    0.3478
  band No.  band energies     occupation 
      1       3.1502      2.00000
      2       6.5156      2.00000
      3       6.5156      2.00000
      4       6.5156      2.00000
      5      10.1491      2.00000
      6      10.1491      2.00000
      7      10.1491      2.00000
      8      13.3807      0.02859
      9      21.7587      0.00000
     10      21.7587      0.00000
     11      21.7587      0.00000
     12      24.6576      0.00000
     13      24.6576      0.00000
     14      24.6576      0.00000

 k-point   346 :       0.3913    0.3478    0.3478
  band No.  band energies     occupation 
      1       3.5169      2.00000
      2       5.9331      2.00000
      3       6.8286      2.00000
      4       6.8286      2.00000
      5       9.6024      2.00000
      6       9.6024      2.00000
      7      10.4771      2.00000
      8      12.7967      2.01004
      9      22.0579      0.00000
     10      22.0579      0.00000
     11      22.8756      0.00000
     12      24.7622      0.00000
     13      24.7623      0.00000
     14      24.9279      0.00000

 k-point   347 :       0.4348    0.3478    0.3478
  band No.  band energies     occupation 
      1       3.9243      2.00000
      2       5.3784      2.00000
      3       7.1373      2.00000
      4       7.1373      2.00000
      5       9.1373      2.00000
      6       9.1373      2.00000
      7      10.8550      2.00000
      8      12.2505      2.00000
      9      22.2950      0.00000
     10      22.2950      0.00000
     11      23.9828      0.00000
     12      24.6760      0.00000
     13      24.6760      0.00000
     14      25.2291      0.00000

 k-point   348 :       0.4783    0.3478    0.3478
  band No.  band energies     occupation 
      1       4.3714      2.00000
      2       4.8568      2.00000
      3       7.3655      2.00000
      4       7.3655      2.00000
      5       8.8308      2.00000
      6       8.8308      2.00000
      7      11.2781      2.00000
      8      11.7438      2.00000
      9      22.4344      0.00000
     10      22.4344      0.00000
     11      24.5805      0.00000
     12      24.5805      0.00000
     13      25.0499      0.00000
     14      25.5604      0.00000

 k-point   349 :       0.3913    0.3913    0.3478
  band No.  band energies     occupation 
      1       3.8814      2.00000
      2       6.2676      2.00000
      3       6.2676      2.00000
      4       7.0967      2.00000
      5       9.0969      2.00000
      6       9.9110      2.00000
      7       9.9110      2.00000
      8      12.2125      2.00000
      9      22.4443      0.00000
     10      23.1385      0.00000
     11      23.1385      0.00000
     12      25.0735      0.00000
     13      25.0735      0.00000
     14      25.2096      0.00000

 k-point   350 :       0.4348    0.3913    0.3478
  band No.  band energies     occupation 
      1       4.2861      2.00000
      2       5.7245      2.00000
      3       6.6237      2.00000
      4       7.2852      2.00000
      5       8.7486      2.00000
      6       9.4010      2.00000
      7      10.2795      2.00000
      8      11.6667      2.00000
      9      22.7807      0.00000
     10      23.2683      0.00000
     11      24.1631      0.00000
     12      25.0986      0.00000
     13      25.3392      0.00000
     14      25.4559      0.00000

 k-point   351 :       0.4783    0.3913    0.3478
  band No.  band energies     occupation 
      1       4.7295      2.00000
      2       5.2100      2.00000
      3       6.9751      2.00000
      4       7.2452      2.00000
      5       8.7071      2.00000
      6       8.9741      2.00000
      7      10.6978      2.00000
      8      11.1612      2.00000
      9      23.0576      0.00000
     10      23.2368      0.00000
     11      25.0313      0.00000
     12      25.1526      0.00000
     13      25.2636      0.00000
     14      25.6518      0.00000

 k-point   352 :       0.4348    0.4348    0.3478
  band No.  band energies     occupation 
      1       4.6871      2.00000
      2       6.1019      2.00000
      3       6.1019      2.00000
      4       7.2051      2.00000
      5       8.6657      2.00000
      6       9.7507      2.00000
      7       9.7507      2.00000
      8      11.1220      2.00000
      9      23.1994      0.00000
     10      24.1058      0.00000
     11      24.1058      0.00000
     12      25.6608      0.00000
     13      25.6628      0.00000
     14      25.7282      0.00000

 k-point   353 :       0.4783    0.4348    0.3478
  band No.  band energies     occupation 
      1       5.1257      2.00000
      2       5.5990      2.00000
      3       6.5005      2.00000
      4       6.8939      2.00000
      5       8.8919      2.00000
      6       9.2793      2.00000
      7      10.1600      2.00000
      8      10.6188      2.00000
      9      23.5685      0.00000
     10      23.8836      0.00000
     11      24.7605      0.00000
     12      25.2795      0.00000
     13      25.8492      0.00000
     14      25.9456      0.00000

 k-point   354 :       0.4783    0.4783    0.3478
  band No.  band energies     occupation 
      1       5.5572      2.00000
      2       6.0189      2.00000
      3       6.0189      2.00000
      4       6.4594      2.00000
      5       9.2385      2.00000
      6       9.6701      2.00000
      7       9.6701      2.00000
      8      10.1201      2.00000
      9      24.0118      0.00000
     10      24.4097      0.00000
     11      24.4097      0.00000
     12      24.8661      0.00000
     13      26.4202      0.00000
     14      26.5384      0.00000

 k-point   355 :       0.3913    0.3913    0.3913
  band No.  band energies     occupation 
      1       4.2434      2.00000
      2       6.5828      2.00000
      3       6.5828      2.00000
      4       6.5828      2.00000
      5       9.3610      2.00000
      6       9.3610      2.00000
      7       9.3610      2.00000
      8      11.6282      2.00000
      9      23.5508      0.00000
     10      23.5508      0.00000
     11      23.5508      0.00000
     12      25.4665      0.00000
     13      25.4665      0.00000
     14      25.4665      0.00000

 k-point   356 :       0.4348    0.3913    0.3913
  band No.  band energies     occupation 
      1       4.6447      2.00000
      2       6.0605      2.00000
      3       6.8939      2.00000
      4       6.8939      2.00000
      5       8.8924      2.00000
      6       8.8924      2.00000
      7       9.7109      2.00000
      8      11.0832      2.00000
      9      23.8470      0.00000
     10      23.8470      0.00000
     11      24.6351      0.00000
     12      25.6265      0.00000
     13      25.6265      0.00000
     14      25.7498      0.00000

 k-point   357 :       0.4783    0.3913    0.3913
  band No.  band energies     occupation 
      1       5.0835      2.00000
      2       5.5572      2.00000
      3       7.1249      2.00000
      4       7.1249      2.00000
      5       8.5827      2.00000
      6       8.5827      2.00000
      7      10.1205      2.00000
      8      10.5796      2.00000
      9      24.0140      0.00000
     10      24.0140      0.00000
     11      25.6400      0.00000
     12      25.6410      0.00000
     13      25.6572      0.00000
     14      26.0676      0.00000

 k-point   358 :       0.4348    0.4348    0.3913
  band No.  band energies     occupation 
      1       5.0414      2.00000
      2       6.4184      2.00000
      3       6.4184      2.00000
      4       7.0847      2.00000
      5       8.5410      2.00000
      6       9.1983      2.00000
      7       9.1983      2.00000
      8      10.5401      2.00000
      9      24.2842      0.00000
     10      24.8426      0.00000
     11      24.8426      0.00000
     12      25.9751      0.00000
     13      25.9752      0.00000
     14      26.0364      0.00000

 k-point   359 :       0.4783    0.4348    0.3913
  band No.  band energies     occupation 
      1       5.4734      2.00000
      2       5.9360      2.00000
      3       6.7722      2.00000
      4       7.0447      2.00000
      5       8.4992      2.00000
      6       8.7686      2.00000
      7       9.5898      2.00000
      8      10.0405      2.00000
      9      24.6100      0.00000
     10      24.8148      0.00000
     11      25.6506      0.00000
     12      26.1295      0.00000
     13      26.1833      0.00000
     14      26.2282      0.00000

 k-point   360 :       0.4783    0.4783    0.3913
  band No.  band energies     occupation 
      1       5.8944      2.00000
      2       6.3362      2.00000
      3       6.3362      2.00000
      4       6.7315      2.00000
      5       8.7272      2.00000
      6       9.1165      2.00000
      7       9.1165      2.00000
      8       9.5493      2.00000
      9      25.0593      0.00000
     10      25.4049      0.00000
     11      25.4049      0.00000
     12      25.8401      0.00000
     13      26.6033      0.00000
     14      26.6813      0.00000

 k-point   361 :       0.4348    0.4348    0.4348
  band No.  band energies     occupation 
      1       5.4316      2.00000
      2       6.7316      2.00000
      3       6.7316      2.00000
      4       6.7316      2.00000
      5       8.7274      2.00000
      6       8.7274      2.00000
      7       8.7274      2.00000
      8      10.0006      2.00000
      9      25.3269      0.00000
     10      25.3269      0.00000
     11      25.3270      0.00000
     12      26.2832      0.00000
     13      26.2837      0.00000
     14      26.2975      0.00000

 k-point   362 :       0.4783    0.4348    0.4348
  band No.  band energies     occupation 
      1       5.8529      2.00000
      2       6.2951      2.00000
      3       6.9646      2.00000
      4       6.9646      2.00000
      5       8.4153      2.00000
      6       8.4153      2.00000
      7       9.0757      2.00000
      8       9.5090      2.00000
      9      25.5562      0.00000
     10      25.5564      0.00000
     11      26.2602      0.00000
     12      26.4612      0.00000
     13      26.4846      0.00000
     14      26.5777      0.00000

 k-point   363 :       0.4783    0.4783    0.4348
  band No.  band energies     occupation 
      1       6.2539      2.00000
      2       6.6503      2.00000
      3       6.6503      2.00000
      4       6.9245      2.00000
      5       8.3733      2.00000
      6       8.6443      2.00000
      7       8.6443      2.00000
      8       9.0347      2.00000
      9      26.0227      0.00000
     10      26.2595      0.00000
     11      26.2601      0.00000
     12      26.6419      0.00000
     13      26.7710      0.00000
     14      26.8042      0.00000

 k-point   364 :       0.4783    0.4783    0.4783
  band No.  band energies     occupation 
      1       6.6096      2.00000
      2       6.8846      2.00000
      3       6.8846      2.00000
      4       6.8846      2.00000
      5       8.3312      2.00000
      6       8.3312      2.00000
      7       8.3312      2.00000
      8       8.6028      2.00000
      9      26.7599      0.00000
     10      26.7605      0.00000
     11      26.7640      0.00000
     12      26.9104      0.00000
     13      26.9112      0.00000
     14      26.9138      0.00000


--------------------------------------------------------------------------------------------------------


 soft charge-density along one line, spin component           1
         0         1         2         3         4         5         6         7         8         9
 total charge-density along one line

 pseudopotential strength for first ion, spin component:           1
  8.296  14.127  -0.000  -0.000   0.000  -0.000  -0.000   0.000
 14.127  24.059  -0.000  -0.000   0.000  -0.000  -0.000   0.000
 -0.000  -0.000   2.020   0.000   0.000   5.777   0.000   0.000
 -0.000  -0.000   0.000   2.020   0.000   0.000   5.777   0.000
  0.000   0.000   0.000   0.000   2.020   0.000   0.000   5.777
 -0.000  -0.000   5.777   0.000   0.000  16.461   0.000   0.000
 -0.000  -0.000   0.000   5.777   0.000   0.000  16.461   0.000
  0.000   0.000   0.000   0.000   5.777   0.000   0.000  16.461
 total augmentation occupancy for first ion, spin component:           1
  6.034  -1.980   0.000   0.000   0.000   0.000  -0.000   0.000
 -1.980   0.708   0.000  -0.000   0.000   0.000   0.000   0.000
  0.000   0.000   1.909   0.000  -0.000  -0.146  -0.000   0.000
  0.000  -0.000   0.000   1.909   0.000  -0.000  -0.146  -0.000
  0.000   0.000  -0.000   0.000   1.909   0.000  -0.000  -0.146
  0.000   0.000  -0.146  -0.000   0.000   0.012   0.000  -0.000
 -0.000   0.000  -0.000  -0.146  -0.000   0.000   0.012   0.000
  0.000   0.000   0.000  -0.000  -0.146  -0.000   0.000   0.012


------------------------ aborting loop because EDIFF is reached ----------------------------------------


    CHARGE:  cpu time      0.5015: real time      0.2600
    FORLOC:  cpu time      0.0003: real time      0.0003
    FORNL :  cpu time      3.4313: real time      1.7762
    STRESS:  cpu time     10.2996: real time      5.3472
    FORCOR:  cpu time      0.0298: real time      0.0138
    FORHAR:  cpu time      0.0079: real time      0.0039
    MIXING:  cpu time      0.0008: real time      0.0008
    OFIELD:  cpu time      0.0000: real time      0.0000

  FORCE on cell =-STRESS in cart. coord.  units (eV):
  Direction    XX          YY          ZZ          XY          YZ          ZX
  --------------------------------------------------------------------------------------
  Alpha Z    -1.25485    -1.25485    -1.25485
  Ewald    -113.22171  -113.22171  -113.22171    -0.00000     0.00000     0.00000
  Hartree     0.36172     0.36172     0.36172    -0.00000    -0.00000    -0.00000
  E(xc)     -40.21904   -40.21904   -40.21904     0.00000     0.00000    -0.00000
  Local       6.93784     6.93784     6.93784    -0.00000     0.00000     0.00000
  n-local    90.67675    91.96910    96.51569     1.35701     3.18801     1.32198
  augment    -3.52405    -3.52405    -3.52405    -0.00000     0.00000     0.00000
  Kinetic    76.66681    79.93735    85.91339     2.21492   -10.28714    -1.41094
  Fock        0.00000     0.00000     0.00000     0.00000     0.00000     0.00000
  -------------------------------------------------------------------------------------
  Total      22.97294    22.97294    22.97294    -0.00000     0.00000     0.00000
  in kB     859.43876   859.43876   859.43876    -0.00000     0.00000     0.00000
  external pressure =      859.44 kB  Pullay stress =        0.00 kB


 VOLUME and BASIS-vectors are now :
 -----------------------------------------------------------------------------
  energy-cutoff  :      400.00
  volume of cell :       42.83
      direct lattice vectors                 reciprocal lattice vectors
     3.498678844  0.000000000  0.000000000     0.285822176  0.000000000 -0.000000000
    -0.000000000  3.498678844  0.000000000     0.000000000  0.285822176  0.000000000
     0.000000000  0.000000000  3.498678844    -0.000000000 -0.000000000  0.285822176

  length of vectors
     3.498678844  3.498678844  3.498678844     0.285822176  0.285822176  0.285822176


 FORCES acting on ions
    electron-ion (+dipol)            ewald-force                    non-local-force                 convergence-correction
 -----------------------------------------------------------------------------------------------
   -.404E-14 -.499E-15 0.117E-14   0.131E-14 -.930E-15 0.115E-15   0.155E-26 0.427E-25 -.838E-25   -.350E-16 -.148E-16 0.364E-16
   -.332E-14 -.461E-14 -.406E-14   0.130E-14 0.792E-16 0.674E-15   -.265E-25 0.165E-26 0.617E-25   -.349E-16 0.231E-17 -.170E-17
   -.472E-14 -.116E-15 0.447E-13   -.125E-14 -.138E-15 0.294E-15   -.732E-26 -.521E-25 0.220E-25   -.864E-17 -.249E-16 -.654E-19
   -.469E-14 0.316E-13 0.555E-13   -.127E-14 0.871E-15 -.936E-15   -.882E-26 0.357E-25 0.548E-27   -.981E-17 0.979E-17 0.355E-16
 -----------------------------------------------------------------------------------------------
   -.168E-13 0.263E-13 0.974E-13   0.920E-16 -.117E-15 0.148E-15   -.411E-25 0.280E-25 0.427E-27   -.883E-16 -.276E-16 0.702E-16


 POSITION                                       TOTAL-FORCE (eV/Angst)
 -----------------------------------------------------------------------------------
      0.00000      0.00000      0.00000         0.000000     -0.000000      0.000000
     -0.00000      1.74934      1.74934        -0.000000     -0.000000     -0.000000
      1.74934      0.00000      1.74934        -0.000000      0.000000     -0.000000
      1.74934      1.74934      0.00000         0.000000     -0.000000      0.000000
 -----------------------------------------------------------------------------------
    total drift:                               -0.000000      0.000000      0.000000


--------------------------------------------------------------------------------------------------------



  FREE ENERGIE OF THE ION-ELECTRON SYSTEM (eV)
  ---------------------------------------------------
  free  energy   TOTEN  =       -10.72707713 eV

  energy  without entropy=      -10.72856612  energy(sigma->0) =      -10.72757346



--------------------------------------------------------------------------------------------------------


    POTLOK:  cpu time      0.0385: real time      0.0185


--------------------------------------------------------------------------------------------------------




--------------------------------------------------------------------------------------------------------


  
 reached required accuracy - stopping structural energy minimisation
     LOOP+:  cpu time    181.6647: real time     92.8462
    4ORBIT:  cpu time      0.0000: real time      0.0000

 total amount of memory used by VASP MPI-rank0    37569. kBytes
=======================================================================

   base      :      30000. kBytes
   nonlr-proj:       1200. kBytes
   fftplans  :        368. kBytes
   grid      :       1016. kBytes
   one-center:         12. kBytes
   wavefun   :       4973. kBytes

  
  
 General timing and accounting informations for this job:
 ========================================================
  
                  Total CPU time used (sec):      186.050
                            User time (sec):      183.536
                          System time (sec):        2.514
                         Elapsed time (sec):       96.505
  
                   Maximum memory used (kb):       60928.
                   Average memory used (kb):          N/A
  
                          Minor page faults:        31749
                          Major page faults:           17
                 Voluntary context switches:         2071
