<?xml version="1.0" encoding="ISO-8859-1"?>
<modeling>
 <generator>
  <i name="program" type="string">vasp </i>
  <i name="version" type="string">6.4.2  </i>
  <i name="subversion" type="string">20Jul23 (build Apr 22 2024 22:35:45) complex                          parallel </i>
  <i name="platform" type="string">LinuxGNU </i>
  <i name="date" type="string">2024 05 26 </i>
  <i name="time" type="string">15:37:48 </i>
 </generator>
 <incar>
  <i type="string" name="SYSTEM">Al fcc relaxation</i>
  <i type="string" name="PREC">Accurate</i>
  <i type="string" name="ALGO">Fast</i>
  <i type="int" name="NELM">    60</i>
  <i type="int" name="NELMIN">     4</i>
  <i type="int" name="IBRION">     2</i>
  <i name="EDIFF">      0.00000100</i>
  <i type="int" name="NSW">   100</i>
  <i type="int" name="ISIF">     4</i>
  <i name="ENCUT">    400.00000000</i>
  <i type="string" name="LREAL">Auto</i>
  <i type="int" name="ISMEAR">     1</i>
  <i name="SIGMA">      0.20000000</i>
  <i name="KSPACING">      0.08000000</i>
  <i type="logical" name="LWAVE"> F  </i>
  <i type="logical" name="LCHARG"> F  </i>
 </incar>
 <primitive_cell>
  <structure name="primitive_cell" >
   <crystal>
    <varray name="basis" >
     <v>       1.74933942      -1.74933942       0.00000000 </v>
     <v>       1.74933942       0.00000000       1.74933942 </v>
     <v>       0.00000000      -1.74933942       1.74933942 </v>
    </varray>
    <i name="volume">     10.70661646 </i>
    <varray name="rec_basis" >
     <v>       0.28582218      -0.28582218      -0.28582218 </v>
     <v>       0.28582218       0.28582218       0.28582218 </v>
     <v>      -0.28582218      -0.28582218       0.28582218 </v>
    </varray>
   </crystal>
   <varray name="positions" >
    <v>       0.00000000       0.00000000       0.00000000 </v>
   </varray>
  </structure>
  <varray name="primitive_index" >
   <v type="int" >        1 </v>
  </varray>
 </primitive_cell>
 <kpoints>
  <generation param="Monkhorst-Pack">
   <v type="int" name="divisions">      23       23       23 </v>
   <v name="usershift">      0.00000000       0.00000000       0.00000000 </v>
   <v name="genvec1">      0.04347826      -0.00000000       0.00000000 </v>
   <v name="genvec2">      0.00000000       0.04347826       0.00000000 </v>
   <v name="genvec3">      0.00000000       0.00000000       0.04347826 </v>
   <v name="shift">      0.00000000       0.00000000       0.00000000 </v>
  </generation>
  <varray name="kpointlist" >
   <v>       0.00000000       0.00000000       0.00000000 </v>
   <v>       0.04347826       0.00000000       0.00000000 </v>
   <v>       0.08695652       0.00000000       0.00000000 </v>
   <v>       0.13043478       0.00000000       0.00000000 </v>
   <v>       0.17391304       0.00000000       0.00000000 </v>
   <v>       0.21739130       0.00000000       0.00000000 </v>
   <v>       0.26086957       0.00000000       0.00000000 </v>
   <v>       0.30434783       0.00000000       0.00000000 </v>
   <v>       0.34782609       0.00000000       0.00000000 </v>
   <v>       0.39130435       0.00000000       0.00000000 </v>
   <v>       0.43478261       0.00000000       0.00000000 </v>
   <v>       0.47826087       0.00000000       0.00000000 </v>
   <v>       0.04347826       0.04347826       0.00000000 </v>
   <v>       0.08695652       0.04347826       0.00000000 </v>
   <v>       0.13043478       0.04347826       0.00000000 </v>
   <v>       0.17391304       0.04347826       0.00000000 </v>
   <v>       0.21739130       0.04347826       0.00000000 </v>
   <v>       0.26086957       0.04347826       0.00000000 </v>
   <v>       0.30434783       0.04347826       0.00000000 </v>
   <v>       0.34782609       0.04347826       0.00000000 </v>
   <v>       0.39130435       0.04347826       0.00000000 </v>
   <v>       0.43478261       0.04347826       0.00000000 </v>
   <v>       0.47826087       0.04347826       0.00000000 </v>
   <v>       0.08695652       0.08695652       0.00000000 </v>
   <v>       0.13043478       0.08695652       0.00000000 </v>
   <v>       0.17391304       0.08695652       0.00000000 </v>
   <v>       0.21739130       0.08695652       0.00000000 </v>
   <v>       0.26086957       0.08695652       0.00000000 </v>
   <v>       0.30434783       0.08695652       0.00000000 </v>
   <v>       0.34782609       0.08695652       0.00000000 </v>
   <v>       0.39130435       0.08695652       0.00000000 </v>
   <v>       0.43478261       0.08695652       0.00000000 </v>
   <v>       0.47826087       0.08695652       0.00000000 </v>
   <v>       0.13043478       0.13043478       0.00000000 </v>
   <v>       0.17391304       0.13043478       0.00000000 </v>
   <v>       0.21739130       0.13043478       0.00000000 </v>
   <v>       0.26086957       0.13043478       0.00000000 </v>
   <v>       0.30434783       0.13043478       0.00000000 </v>
   <v>       0.34782609       0.13043478       0.00000000 </v>
   <v>       0.39130435       0.13043478       0.00000000 </v>
   <v>       0.43478261       0.13043478       0.00000000 </v>
   <v>       0.47826087       0.13043478       0.00000000 </v>
   <v>       0.17391304       0.17391304       0.00000000 </v>
   <v>       0.21739130       0.17391304       0.00000000 </v>
   <v>       0.26086957       0.17391304       0.00000000 </v>
   <v>       0.30434783       0.17391304       0.00000000 </v>
   <v>       0.34782609       0.17391304       0.00000000 </v>
   <v>       0.39130435       0.17391304       0.00000000 </v>
   <v>       0.43478261       0.17391304       0.00000000 </v>
   <v>       0.47826087       0.17391304       0.00000000 </v>
   <v>       0.21739130       0.21739130       0.00000000 </v>
   <v>       0.26086957       0.21739130       0.00000000 </v>
   <v>       0.30434783       0.21739130       0.00000000 </v>
   <v>       0.34782609       0.21739130       0.00000000 </v>
   <v>       0.39130435       0.21739130       0.00000000 </v>
   <v>       0.43478261       0.21739130       0.00000000 </v>
   <v>       0.47826087       0.21739130       0.00000000 </v>
   <v>       0.26086957       0.26086957       0.00000000 </v>
   <v>       0.30434783       0.26086957       0.00000000 </v>
   <v>       0.34782609       0.26086957       0.00000000 </v>
   <v>       0.39130435       0.26086957       0.00000000 </v>
   <v>       0.43478261       0.26086957       0.00000000 </v>
   <v>       0.47826087       0.26086957       0.00000000 </v>
   <v>       0.30434783       0.30434783       0.00000000 </v>
   <v>       0.34782609       0.30434783       0.00000000 </v>
   <v>       0.39130435       0.30434783       0.00000000 </v>
   <v>       0.43478261       0.30434783       0.00000000 </v>
   <v>       0.47826087       0.30434783       0.00000000 </v>
   <v>       0.34782609       0.34782609       0.00000000 </v>
   <v>       0.39130435       0.34782609       0.00000000 </v>
   <v>       0.43478261       0.34782609       0.00000000 </v>
   <v>       0.47826087       0.34782609       0.00000000 </v>
   <v>       0.39130435       0.39130435       0.00000000 </v>
   <v>       0.43478261       0.39130435       0.00000000 </v>
   <v>       0.47826087       0.39130435       0.00000000 </v>
   <v>       0.43478261       0.43478261       0.00000000 </v>
   <v>       0.47826087       0.43478261       0.00000000 </v>
   <v>       0.47826087       0.47826087       0.00000000 </v>
   <v>       0.04347826       0.04347826       0.04347826 </v>
   <v>       0.08695652       0.04347826       0.04347826 </v>
   <v>       0.13043478       0.04347826       0.04347826 </v>
   <v>       0.17391304       0.04347826       0.04347826 </v>
   <v>       0.21739130       0.04347826       0.04347826 </v>
   <v>       0.26086957       0.04347826       0.04347826 </v>
   <v>       0.30434783       0.04347826       0.04347826 </v>
   <v>       0.34782609       0.04347826       0.04347826 </v>
   <v>       0.39130435       0.04347826       0.04347826 </v>
   <v>       0.43478261       0.04347826       0.04347826 </v>
   <v>       0.47826087       0.04347826       0.04347826 </v>
   <v>       0.08695652       0.08695652       0.04347826 </v>
   <v>       0.13043478       0.08695652       0.04347826 </v>
   <v>       0.17391304       0.08695652       0.04347826 </v>
   <v>       0.21739130       0.08695652       0.04347826 </v>
   <v>       0.26086957       0.08695652       0.04347826 </v>
   <v>       0.30434783       0.08695652       0.04347826 </v>
   <v>       0.34782609       0.08695652       0.04347826 </v>
   <v>       0.39130435       0.08695652       0.04347826 </v>
   <v>       0.43478261       0.08695652       0.04347826 </v>
   <v>       0.47826087       0.08695652       0.04347826 </v>
   <v>       0.13043478       0.13043478       0.04347826 </v>
   <v>       0.17391304       0.13043478       0.04347826 </v>
   <v>       0.21739130       0.13043478       0.04347826 </v>
   <v>       0.26086957       0.13043478       0.04347826 </v>
   <v>       0.30434783       0.13043478       0.04347826 </v>
   <v>       0.34782609       0.13043478       0.04347826 </v>
   <v>       0.39130435       0.13043478       0.04347826 </v>
   <v>       0.43478261       0.13043478       0.04347826 </v>
   <v>       0.47826087       0.13043478       0.04347826 </v>
   <v>       0.17391304       0.17391304       0.04347826 </v>
   <v>       0.21739130       0.17391304       0.04347826 </v>
   <v>       0.26086957       0.17391304       0.04347826 </v>
   <v>       0.30434783       0.17391304       0.04347826 </v>
   <v>       0.34782609       0.17391304       0.04347826 </v>
   <v>       0.39130435       0.17391304       0.04347826 </v>
   <v>       0.43478261       0.17391304       0.04347826 </v>
   <v>       0.47826087       0.17391304       0.04347826 </v>
   <v>       0.21739130       0.21739130       0.04347826 </v>
   <v>       0.26086957       0.21739130       0.04347826 </v>
   <v>       0.30434783       0.21739130       0.04347826 </v>
   <v>       0.34782609       0.21739130       0.04347826 </v>
   <v>       0.39130435       0.21739130       0.04347826 </v>
   <v>       0.43478261       0.21739130       0.04347826 </v>
   <v>       0.47826087       0.21739130       0.04347826 </v>
   <v>       0.26086957       0.26086957       0.04347826 </v>
   <v>       0.30434783       0.26086957       0.04347826 </v>
   <v>       0.34782609       0.26086957       0.04347826 </v>
   <v>       0.39130435       0.26086957       0.04347826 </v>
   <v>       0.43478261       0.26086957       0.04347826 </v>
   <v>       0.47826087       0.26086957       0.04347826 </v>
   <v>       0.30434783       0.30434783       0.04347826 </v>
   <v>       0.34782609       0.30434783       0.04347826 </v>
   <v>       0.39130435       0.30434783       0.04347826 </v>
   <v>       0.43478261       0.30434783       0.04347826 </v>
   <v>       0.47826087       0.30434783       0.04347826 </v>
   <v>       0.34782609       0.34782609       0.04347826 </v>
   <v>       0.39130435       0.34782609       0.04347826 </v>
   <v>       0.43478261       0.34782609       0.04347826 </v>
   <v>       0.47826087       0.34782609       0.04347826 </v>
   <v>       0.39130435       0.39130435       0.04347826 </v>
   <v>       0.43478261       0.39130435       0.04347826 </v>
   <v>       0.47826087       0.39130435       0.04347826 </v>
   <v>       0.43478261       0.43478261       0.04347826 </v>
   <v>       0.47826087       0.43478261       0.04347826 </v>
   <v>       0.47826087       0.47826087       0.04347826 </v>
   <v>       0.08695652       0.08695652       0.08695652 </v>
   <v>       0.13043478       0.08695652       0.08695652 </v>
   <v>       0.17391304       0.08695652       0.08695652 </v>
   <v>       0.21739130       0.08695652       0.08695652 </v>
   <v>       0.26086957       0.08695652       0.08695652 </v>
   <v>       0.30434783       0.08695652       0.08695652 </v>
   <v>       0.34782609       0.08695652       0.08695652 </v>
   <v>       0.39130435       0.08695652       0.08695652 </v>
   <v>       0.43478261       0.08695652       0.08695652 </v>
   <v>       0.47826087       0.08695652       0.08695652 </v>
   <v>       0.13043478       0.13043478       0.08695652 </v>
   <v>       0.17391304       0.13043478       0.08695652 </v>
   <v>       0.21739130       0.13043478       0.08695652 </v>
   <v>       0.26086957       0.13043478       0.08695652 </v>
   <v>       0.30434783       0.13043478       0.08695652 </v>
   <v>       0.34782609       0.13043478       0.08695652 </v>
   <v>       0.39130435       0.13043478       0.08695652 </v>
   <v>       0.43478261       0.13043478       0.08695652 </v>
   <v>       0.47826087       0.13043478       0.08695652 </v>
   <v>       0.17391304       0.17391304       0.08695652 </v>
   <v>       0.21739130       0.17391304       0.08695652 </v>
   <v>       0.26086957       0.17391304       0.08695652 </v>
   <v>       0.30434783       0.17391304       0.08695652 </v>
   <v>       0.34782609       0.17391304       0.08695652 </v>
   <v>       0.39130435       0.17391304       0.08695652 </v>
   <v>       0.43478261       0.17391304       0.08695652 </v>
   <v>       0.47826087       0.17391304       0.08695652 </v>
   <v>       0.21739130       0.21739130       0.08695652 </v>
   <v>       0.26086957       0.21739130       0.08695652 </v>
   <v>       0.30434783       0.21739130       0.08695652 </v>
   <v>       0.34782609       0.21739130       0.08695652 </v>
   <v>       0.39130435       0.21739130       0.08695652 </v>
   <v>       0.43478261       0.21739130       0.08695652 </v>
   <v>       0.47826087       0.21739130       0.08695652 </v>
   <v>       0.26086957       0.26086957       0.08695652 </v>
   <v>       0.30434783       0.26086957       0.08695652 </v>
   <v>       0.34782609       0.26086957       0.08695652 </v>
   <v>       0.39130435       0.26086957       0.08695652 </v>
   <v>       0.43478261       0.26086957       0.08695652 </v>
   <v>       0.47826087       0.26086957       0.08695652 </v>
   <v>       0.30434783       0.30434783       0.08695652 </v>
   <v>       0.34782609       0.30434783       0.08695652 </v>
   <v>       0.39130435       0.30434783       0.08695652 </v>
   <v>       0.43478261       0.30434783       0.08695652 </v>
   <v>       0.47826087       0.30434783       0.08695652 </v>
   <v>       0.34782609       0.34782609       0.08695652 </v>
   <v>       0.39130435       0.34782609       0.08695652 </v>
   <v>       0.43478261       0.34782609       0.08695652 </v>
   <v>       0.47826087       0.34782609       0.08695652 </v>
   <v>       0.39130435       0.39130435       0.08695652 </v>
   <v>       0.43478261       0.39130435       0.08695652 </v>
   <v>       0.47826087       0.39130435       0.08695652 </v>
   <v>       0.43478261       0.43478261       0.08695652 </v>
   <v>       0.47826087       0.43478261       0.08695652 </v>
   <v>       0.47826087       0.47826087       0.08695652 </v>
   <v>       0.13043478       0.13043478       0.13043478 </v>
   <v>       0.17391304       0.13043478       0.13043478 </v>
   <v>       0.21739130       0.13043478       0.13043478 </v>
   <v>       0.26086957       0.13043478       0.13043478 </v>
   <v>       0.30434783       0.13043478       0.13043478 </v>
   <v>       0.34782609       0.13043478       0.13043478 </v>
   <v>       0.39130435       0.13043478       0.13043478 </v>
   <v>       0.43478261       0.13043478       0.13043478 </v>
   <v>       0.47826087       0.13043478       0.13043478 </v>
   <v>       0.17391304       0.17391304       0.13043478 </v>
   <v>       0.21739130       0.17391304       0.13043478 </v>
   <v>       0.26086957       0.17391304       0.13043478 </v>
   <v>       0.30434783       0.17391304       0.13043478 </v>
   <v>       0.34782609       0.17391304       0.13043478 </v>
   <v>       0.39130435       0.17391304       0.13043478 </v>
   <v>       0.43478261       0.17391304       0.13043478 </v>
   <v>       0.47826087       0.17391304       0.13043478 </v>
   <v>       0.21739130       0.21739130       0.13043478 </v>
   <v>       0.26086957       0.21739130       0.13043478 </v>
   <v>       0.30434783       0.21739130       0.13043478 </v>
   <v>       0.34782609       0.21739130       0.13043478 </v>
   <v>       0.39130435       0.21739130       0.13043478 </v>
   <v>       0.43478261       0.21739130       0.13043478 </v>
   <v>       0.47826087       0.21739130       0.13043478 </v>
   <v>       0.26086957       0.26086957       0.13043478 </v>
   <v>       0.30434783       0.26086957       0.13043478 </v>
   <v>       0.34782609       0.26086957       0.13043478 </v>
   <v>       0.39130435       0.26086957       0.13043478 </v>
   <v>       0.43478261       0.26086957       0.13043478 </v>
   <v>       0.47826087       0.26086957       0.13043478 </v>
   <v>       0.30434783       0.30434783       0.13043478 </v>
   <v>       0.34782609       0.30434783       0.13043478 </v>
   <v>       0.39130435       0.30434783       0.13043478 </v>
   <v>       0.43478261       0.30434783       0.13043478 </v>
   <v>       0.47826087       0.30434783       0.13043478 </v>
   <v>       0.34782609       0.34782609       0.13043478 </v>
   <v>       0.39130435       0.34782609       0.13043478 </v>
   <v>       0.43478261       0.34782609       0.13043478 </v>
   <v>       0.47826087       0.34782609       0.13043478 </v>
   <v>       0.39130435       0.39130435       0.13043478 </v>
   <v>       0.43478261       0.39130435       0.13043478 </v>
   <v>       0.47826087       0.39130435       0.13043478 </v>
   <v>       0.43478261       0.43478261       0.13043478 </v>
   <v>       0.47826087       0.43478261       0.13043478 </v>
   <v>       0.47826087       0.47826087       0.13043478 </v>
   <v>       0.17391304       0.17391304       0.17391304 </v>
   <v>       0.21739130       0.17391304       0.17391304 </v>
   <v>       0.26086957       0.17391304       0.17391304 </v>
   <v>       0.30434783       0.17391304       0.17391304 </v>
   <v>       0.34782609       0.17391304       0.17391304 </v>
   <v>       0.39130435       0.17391304       0.17391304 </v>
   <v>       0.43478261       0.17391304       0.17391304 </v>
   <v>       0.47826087       0.17391304       0.17391304 </v>
   <v>       0.21739130       0.21739130       0.17391304 </v>
   <v>       0.26086957       0.21739130       0.17391304 </v>
   <v>       0.30434783       0.21739130       0.17391304 </v>
   <v>       0.34782609       0.21739130       0.17391304 </v>
   <v>       0.39130435       0.21739130       0.17391304 </v>
   <v>       0.43478261       0.21739130       0.17391304 </v>
   <v>       0.47826087       0.21739130       0.17391304 </v>
   <v>       0.26086957       0.26086957       0.17391304 </v>
   <v>       0.30434783       0.26086957       0.17391304 </v>
   <v>       0.34782609       0.26086957       0.17391304 </v>
   <v>       0.39130435       0.26086957       0.17391304 </v>
   <v>       0.43478261       0.26086957       0.17391304 </v>
   <v>       0.47826087       0.26086957       0.17391304 </v>
   <v>       0.30434783       0.30434783       0.17391304 </v>
   <v>       0.34782609       0.30434783       0.17391304 </v>
   <v>       0.39130435       0.30434783       0.17391304 </v>
   <v>       0.43478261       0.30434783       0.17391304 </v>
   <v>       0.47826087       0.30434783       0.17391304 </v>
   <v>       0.34782609       0.34782609       0.17391304 </v>
   <v>       0.39130435       0.34782609       0.17391304 </v>
   <v>       0.43478261       0.34782609       0.17391304 </v>
   <v>       0.47826087       0.34782609       0.17391304 </v>
   <v>       0.39130435       0.39130435       0.17391304 </v>
   <v>       0.43478261       0.39130435       0.17391304 </v>
   <v>       0.47826087       0.39130435       0.17391304 </v>
   <v>       0.43478261       0.43478261       0.17391304 </v>
   <v>       0.47826087       0.43478261       0.17391304 </v>
   <v>       0.47826087       0.47826087       0.17391304 </v>
   <v>       0.21739130       0.21739130       0.21739130 </v>
   <v>       0.26086957       0.21739130       0.21739130 </v>
   <v>       0.30434783       0.21739130       0.21739130 </v>
   <v>       0.34782609       0.21739130       0.21739130 </v>
   <v>       0.39130435       0.21739130       0.21739130 </v>
   <v>       0.43478261       0.21739130       0.21739130 </v>
   <v>       0.47826087       0.21739130       0.21739130 </v>
   <v>       0.26086957       0.26086957       0.21739130 </v>
   <v>       0.30434783       0.26086957       0.21739130 </v>
   <v>       0.34782609       0.26086957       0.21739130 </v>
   <v>       0.39130435       0.26086957       0.21739130 </v>
   <v>       0.43478261       0.26086957       0.21739130 </v>
   <v>       0.47826087       0.26086957       0.21739130 </v>
   <v>       0.30434783       0.30434783       0.21739130 </v>
   <v>       0.34782609       0.30434783       0.21739130 </v>
   <v>       0.39130435       0.30434783       0.21739130 </v>
   <v>       0.43478261       0.30434783       0.21739130 </v>
   <v>       0.47826087       0.30434783       0.21739130 </v>
   <v>       0.34782609       0.34782609       0.21739130 </v>
   <v>       0.39130435       0.34782609       0.21739130 </v>
   <v>       0.43478261       0.34782609       0.21739130 </v>
   <v>       0.47826087       0.34782609       0.21739130 </v>
   <v>       0.39130435       0.39130435       0.21739130 </v>
   <v>       0.43478261       0.39130435       0.21739130 </v>
   <v>       0.47826087       0.39130435       0.21739130 </v>
   <v>       0.43478261       0.43478261       0.21739130 </v>
   <v>       0.47826087       0.43478261       0.21739130 </v>
   <v>       0.47826087       0.47826087       0.21739130 </v>
   <v>       0.26086957       0.26086957       0.26086957 </v>
   <v>       0.30434783       0.26086957       0.26086957 </v>
   <v>       0.34782609       0.26086957       0.26086957 </v>
   <v>       0.39130435       0.26086957       0.26086957 </v>
   <v>       0.43478261       0.26086957       0.26086957 </v>
   <v>       0.47826087       0.26086957       0.26086957 </v>
   <v>       0.30434783       0.30434783       0.26086957 </v>
   <v>       0.34782609       0.30434783       0.26086957 </v>
   <v>       0.39130435       0.30434783       0.26086957 </v>
   <v>       0.43478261       0.30434783       0.26086957 </v>
   <v>       0.47826087       0.30434783       0.26086957 </v>
   <v>       0.34782609       0.34782609       0.26086957 </v>
   <v>       0.39130435       0.34782609       0.26086957 </v>
   <v>       0.43478261       0.34782609       0.26086957 </v>
   <v>       0.47826087       0.34782609       0.26086957 </v>
   <v>       0.39130435       0.39130435       0.26086957 </v>
   <v>       0.43478261       0.39130435       0.26086957 </v>
   <v>       0.47826087       0.39130435       0.26086957 </v>
   <v>       0.43478261       0.43478261       0.26086957 </v>
   <v>       0.47826087       0.43478261       0.26086957 </v>
   <v>       0.47826087       0.47826087       0.26086957 </v>
   <v>       0.30434783       0.30434783       0.30434783 </v>
   <v>       0.34782609       0.30434783       0.30434783 </v>
   <v>       0.39130435       0.30434783       0.30434783 </v>
   <v>       0.43478261       0.30434783       0.30434783 </v>
   <v>       0.47826087       0.30434783       0.30434783 </v>
   <v>       0.34782609       0.34782609       0.30434783 </v>
   <v>       0.39130435       0.34782609       0.30434783 </v>
   <v>       0.43478261       0.34782609       0.30434783 </v>
   <v>       0.47826087       0.34782609       0.30434783 </v>
   <v>       0.39130435       0.39130435       0.30434783 </v>
   <v>       0.43478261       0.39130435       0.30434783 </v>
   <v>       0.47826087       0.39130435       0.30434783 </v>
   <v>       0.43478261       0.43478261       0.30434783 </v>
   <v>       0.47826087       0.43478261       0.30434783 </v>
   <v>       0.47826087       0.47826087       0.30434783 </v>
   <v>       0.34782609       0.34782609       0.34782609 </v>
   <v>       0.39130435       0.34782609       0.34782609 </v>
   <v>       0.43478261       0.34782609       0.34782609 </v>
   <v>       0.47826087       0.34782609       0.34782609 </v>
   <v>       0.39130435       0.39130435       0.34782609 </v>
   <v>       0.43478261       0.39130435       0.34782609 </v>
   <v>       0.47826087       0.39130435       0.34782609 </v>
   <v>       0.43478261       0.43478261       0.34782609 </v>
   <v>       0.47826087       0.43478261       0.34782609 </v>
   <v>       0.47826087       0.47826087       0.34782609 </v>
   <v>       0.39130435       0.39130435       0.39130435 </v>
   <v>       0.43478261       0.39130435       0.39130435 </v>
   <v>       0.47826087       0.39130435       0.39130435 </v>
   <v>       0.43478261       0.43478261       0.39130435 </v>
   <v>       0.47826087       0.43478261       0.39130435 </v>
   <v>       0.47826087       0.47826087       0.39130435 </v>
   <v>       0.43478261       0.43478261       0.43478261 </v>
   <v>       0.47826087       0.43478261       0.43478261 </v>
   <v>       0.47826087       0.47826087       0.43478261 </v>
   <v>       0.47826087       0.47826087       0.47826087 </v>
  </varray>
  <varray name="weights" >
   <v>       0.00008219 </v>
   <v>       0.00049314 </v>
   <v>       0.00049314 </v>
   <v>       0.00049314 </v>
   <v>       0.00049314 </v>
   <v>       0.00049314 </v>
   <v>       0.00049314 </v>
   <v>       0.00049314 </v>
   <v>       0.00049314 </v>
   <v>       0.00049314 </v>
   <v>       0.00049314 </v>
   <v>       0.00049314 </v>
   <v>       0.00098627 </v>
   <v>       0.00197255 </v>
   <v>       0.00197255 </v>
   <v>       0.00197255 </v>
   <v>       0.00197255 </v>
   <v>       0.00197255 </v>
   <v>       0.00197255 </v>
   <v>       0.00197255 </v>
   <v>       0.00197255 </v>
   <v>       0.00197255 </v>
   <v>       0.00197255 </v>
   <v>       0.00098627 </v>
   <v>       0.00197255 </v>
   <v>       0.00197255 </v>
   <v>       0.00197255 </v>
   <v>       0.00197255 </v>
   <v>       0.00197255 </v>
   <v>       0.00197255 </v>
   <v>       0.00197255 </v>
   <v>       0.00197255 </v>
   <v>       0.00197255 </v>
   <v>       0.00098627 </v>
   <v>       0.00197255 </v>
   <v>       0.00197255 </v>
   <v>       0.00197255 </v>
   <v>       0.00197255 </v>
   <v>       0.00197255 </v>
   <v>       0.00197255 </v>
   <v>       0.00197255 </v>
   <v>       0.00197255 </v>
   <v>       0.00098627 </v>
   <v>       0.00197255 </v>
   <v>       0.00197255 </v>
   <v>       0.00197255 </v>
   <v>       0.00197255 </v>
   <v>       0.00197255 </v>
   <v>       0.00197255 </v>
   <v>       0.00197255 </v>
   <v>       0.00098627 </v>
   <v>       0.00197255 </v>
   <v>       0.00197255 </v>
   <v>       0.00197255 </v>
   <v>       0.00197255 </v>
   <v>       0.00197255 </v>
   <v>       0.00197255 </v>
   <v>       0.00098627 </v>
   <v>       0.00197255 </v>
   <v>       0.00197255 </v>
   <v>       0.00197255 </v>
   <v>       0.00197255 </v>
   <v>       0.00197255 </v>
   <v>       0.00098627 </v>
   <v>       0.00197255 </v>
   <v>       0.00197255 </v>
   <v>       0.00197255 </v>
   <v>       0.00197255 </v>
   <v>       0.00098627 </v>
   <v>       0.00197255 </v>
   <v>       0.00197255 </v>
   <v>       0.00197255 </v>
   <v>       0.00098627 </v>
   <v>       0.00197255 </v>
   <v>       0.00197255 </v>
   <v>       0.00098627 </v>
   <v>       0.00197255 </v>
   <v>       0.00098627 </v>
   <v>       0.00065752 </v>
   <v>       0.00197255 </v>
   <v>       0.00197255 </v>
   <v>       0.00197255 </v>
   <v>       0.00197255 </v>
   <v>       0.00197255 </v>
   <v>       0.00197255 </v>
   <v>       0.00197255 </v>
   <v>       0.00197255 </v>
   <v>       0.00197255 </v>
   <v>       0.00197255 </v>
   <v>       0.00197255 </v>
   <v>       0.00394510 </v>
   <v>       0.00394510 </v>
   <v>       0.00394510 </v>
   <v>       0.00394510 </v>
   <v>       0.00394510 </v>
   <v>       0.00394510 </v>
   <v>       0.00394510 </v>
   <v>       0.00394510 </v>
   <v>       0.00394510 </v>
   <v>       0.00197255 </v>
   <v>       0.00394510 </v>
   <v>       0.00394510 </v>
   <v>       0.00394510 </v>
   <v>       0.00394510 </v>
   <v>       0.00394510 </v>
   <v>       0.00394510 </v>
   <v>       0.00394510 </v>
   <v>       0.00394510 </v>
   <v>       0.00197255 </v>
   <v>       0.00394510 </v>
   <v>       0.00394510 </v>
   <v>       0.00394510 </v>
   <v>       0.00394510 </v>
   <v>       0.00394510 </v>
   <v>       0.00394510 </v>
   <v>       0.00394510 </v>
   <v>       0.00197255 </v>
   <v>       0.00394510 </v>
   <v>       0.00394510 </v>
   <v>       0.00394510 </v>
   <v>       0.00394510 </v>
   <v>       0.00394510 </v>
   <v>       0.00394510 </v>
   <v>       0.00197255 </v>
   <v>       0.00394510 </v>
   <v>       0.00394510 </v>
   <v>       0.00394510 </v>
   <v>       0.00394510 </v>
   <v>       0.00394510 </v>
   <v>       0.00197255 </v>
   <v>       0.00394510 </v>
   <v>       0.00394510 </v>
   <v>       0.00394510 </v>
   <v>       0.00394510 </v>
   <v>       0.00197255 </v>
   <v>       0.00394510 </v>
   <v>       0.00394510 </v>
   <v>       0.00394510 </v>
   <v>       0.00197255 </v>
   <v>       0.00394510 </v>
   <v>       0.00394510 </v>
   <v>       0.00197255 </v>
   <v>       0.00394510 </v>
   <v>       0.00197255 </v>
   <v>       0.00065752 </v>
   <v>       0.00197255 </v>
   <v>       0.00197255 </v>
   <v>       0.00197255 </v>
   <v>       0.00197255 </v>
   <v>       0.00197255 </v>
   <v>       0.00197255 </v>
   <v>       0.00197255 </v>
   <v>       0.00197255 </v>
   <v>       0.00197255 </v>
   <v>       0.00197255 </v>
   <v>       0.00394510 </v>
   <v>       0.00394510 </v>
   <v>       0.00394510 </v>
   <v>       0.00394510 </v>
   <v>       0.00394510 </v>
   <v>       0.00394510 </v>
   <v>       0.00394510 </v>
   <v>       0.00394510 </v>
   <v>       0.00197255 </v>
   <v>       0.00394510 </v>
   <v>       0.00394510 </v>
   <v>       0.00394510 </v>
   <v>       0.00394510 </v>
   <v>       0.00394510 </v>
   <v>       0.00394510 </v>
   <v>       0.00394510 </v>
   <v>       0.00197255 </v>
   <v>       0.00394510 </v>
   <v>       0.00394510 </v>
   <v>       0.00394510 </v>
   <v>       0.00394510 </v>
   <v>       0.00394510 </v>
   <v>       0.00394510 </v>
   <v>       0.00197255 </v>
   <v>       0.00394510 </v>
   <v>       0.00394510 </v>
   <v>       0.00394510 </v>
   <v>       0.00394510 </v>
   <v>       0.00394510 </v>
   <v>       0.00197255 </v>
   <v>       0.00394510 </v>
   <v>       0.00394510 </v>
   <v>       0.00394510 </v>
   <v>       0.00394510 </v>
   <v>       0.00197255 </v>
   <v>       0.00394510 </v>
   <v>       0.00394510 </v>
   <v>       0.00394510 </v>
   <v>       0.00197255 </v>
   <v>       0.00394510 </v>
   <v>       0.00394510 </v>
   <v>       0.00197255 </v>
   <v>       0.00394510 </v>
   <v>       0.00197255 </v>
   <v>       0.00065752 </v>
   <v>       0.00197255 </v>
   <v>       0.00197255 </v>
   <v>       0.00197255 </v>
   <v>       0.00197255 </v>
   <v>       0.00197255 </v>
   <v>       0.00197255 </v>
   <v>       0.00197255 </v>
   <v>       0.00197255 </v>
   <v>       0.00197255 </v>
   <v>       0.00394510 </v>
   <v>       0.00394510 </v>
   <v>       0.00394510 </v>
   <v>       0.00394510 </v>
   <v>       0.00394510 </v>
   <v>       0.00394510 </v>
   <v>       0.00394510 </v>
   <v>       0.00197255 </v>
   <v>       0.00394510 </v>
   <v>       0.00394510 </v>
   <v>       0.00394510 </v>
   <v>       0.00394510 </v>
   <v>       0.00394510 </v>
   <v>       0.00394510 </v>
   <v>       0.00197255 </v>
   <v>       0.00394510 </v>
   <v>       0.00394510 </v>
   <v>       0.00394510 </v>
   <v>       0.00394510 </v>
   <v>       0.00394510 </v>
   <v>       0.00197255 </v>
   <v>       0.00394510 </v>
   <v>       0.00394510 </v>
   <v>       0.00394510 </v>
   <v>       0.00394510 </v>
   <v>       0.00197255 </v>
   <v>       0.00394510 </v>
   <v>       0.00394510 </v>
   <v>       0.00394510 </v>
   <v>       0.00197255 </v>
   <v>       0.00394510 </v>
   <v>       0.00394510 </v>
   <v>       0.00197255 </v>
   <v>       0.00394510 </v>
   <v>       0.00197255 </v>
   <v>       0.00065752 </v>
   <v>       0.00197255 </v>
   <v>       0.00197255 </v>
   <v>       0.00197255 </v>
   <v>       0.00197255 </v>
   <v>       0.00197255 </v>
   <v>       0.00197255 </v>
   <v>       0.00197255 </v>
   <v>       0.00197255 </v>
   <v>       0.00394510 </v>
   <v>       0.00394510 </v>
   <v>       0.00394510 </v>
   <v>       0.00394510 </v>
   <v>       0.00394510 </v>
   <v>       0.00394510 </v>
   <v>       0.00197255 </v>
   <v>       0.00394510 </v>
   <v>       0.00394510 </v>
   <v>       0.00394510 </v>
   <v>       0.00394510 </v>
   <v>       0.00394510 </v>
   <v>       0.00197255 </v>
   <v>       0.00394510 </v>
   <v>       0.00394510 </v>
   <v>       0.00394510 </v>
   <v>       0.00394510 </v>
   <v>       0.00197255 </v>
   <v>       0.00394510 </v>
   <v>       0.00394510 </v>
   <v>       0.00394510 </v>
   <v>       0.00197255 </v>
   <v>       0.00394510 </v>
   <v>       0.00394510 </v>
   <v>       0.00197255 </v>
   <v>       0.00394510 </v>
   <v>       0.00197255 </v>
   <v>       0.00065752 </v>
   <v>       0.00197255 </v>
   <v>       0.00197255 </v>
   <v>       0.00197255 </v>
   <v>       0.00197255 </v>
   <v>       0.00197255 </v>
   <v>       0.00197255 </v>
   <v>       0.00197255 </v>
   <v>       0.00394510 </v>
   <v>       0.00394510 </v>
   <v>       0.00394510 </v>
   <v>       0.00394510 </v>
   <v>       0.00394510 </v>
   <v>       0.00197255 </v>
   <v>       0.00394510 </v>
   <v>       0.00394510 </v>
   <v>       0.00394510 </v>
   <v>       0.00394510 </v>
   <v>       0.00197255 </v>
   <v>       0.00394510 </v>
   <v>       0.00394510 </v>
   <v>       0.00394510 </v>
   <v>       0.00197255 </v>
   <v>       0.00394510 </v>
   <v>       0.00394510 </v>
   <v>       0.00197255 </v>
   <v>       0.00394510 </v>
   <v>       0.00197255 </v>
   <v>       0.00065752 </v>
   <v>       0.00197255 </v>
   <v>       0.00197255 </v>
   <v>       0.00197255 </v>
   <v>       0.00197255 </v>
   <v>       0.00197255 </v>
   <v>       0.00197255 </v>
   <v>       0.00394510 </v>
   <v>       0.00394510 </v>
   <v>       0.00394510 </v>
   <v>       0.00394510 </v>
   <v>       0.00197255 </v>
   <v>       0.00394510 </v>
   <v>       0.00394510 </v>
   <v>       0.00394510 </v>
   <v>       0.00197255 </v>
   <v>       0.00394510 </v>
   <v>       0.00394510 </v>
   <v>       0.00197255 </v>
   <v>       0.00394510 </v>
   <v>       0.00197255 </v>
   <v>       0.00065752 </v>
   <v>       0.00197255 </v>
   <v>       0.00197255 </v>
   <v>       0.00197255 </v>
   <v>       0.00197255 </v>
   <v>       0.00197255 </v>
   <v>       0.00394510 </v>
   <v>       0.00394510 </v>
   <v>       0.00394510 </v>
   <v>       0.00197255 </v>
   <v>       0.00394510 </v>
   <v>       0.00394510 </v>
   <v>       0.00197255 </v>
   <v>       0.00394510 </v>
   <v>       0.00197255 </v>
   <v>       0.00065752 </v>
   <v>       0.00197255 </v>
   <v>       0.00197255 </v>
   <v>       0.00197255 </v>
   <v>       0.00197255 </v>
   <v>       0.00394510 </v>
   <v>       0.00394510 </v>
   <v>       0.00197255 </v>
   <v>       0.00394510 </v>
   <v>       0.00197255 </v>
   <v>       0.00065752 </v>
   <v>       0.00197255 </v>
   <v>       0.00197255 </v>
   <v>       0.00197255 </v>
   <v>       0.00394510 </v>
   <v>       0.00197255 </v>
   <v>       0.00065752 </v>
   <v>       0.00197255 </v>
   <v>       0.00197255 </v>
   <v>       0.00065752 </v>
  </varray>
 </kpoints>
 <parameters>
  <separator name="general" >
   <i type="string" name="SYSTEM">Al fcc relaxation</i>
   <i type="logical" name="LCOMPAT"> F  </i>
  </separator>
  <separator name="electronic" >
   <i type="string" name="PREC">accura</i>
   <i name="ENMAX">    400.00000000</i>
   <i name="ENAUG">    291.05200000</i>
   <i name="EDIFF">      0.00000100</i>
   <i type="int" name="IALGO">    68</i>
   <i type="int" name="IWAVPR">    11</i>
   <i type="int" name="NBANDS">    14</i>
   <i type="int" name="NBANDSLOW">    -1</i>
   <i type="int" name="NBANDSHIGH">    -1</i>
   <i name="NELECT">     12.00000000</i>
   <i type="int" name="TURBO">     0</i>
   <i type="int" name="IRESTART">     0</i>
   <i type="int" name="NREBOOT">     0</i>
   <i type="int" name="NMIN">     0</i>
   <i name="EREF">      0.00000000</i>
   <separator name="electronic smearing" >
    <i type="int" name="ISMEAR">     1</i>
    <i name="SIGMA">      0.20000000</i>
    <i name="KSPACING">      0.08000000</i>
    <i type="logical" name="KGAMMA"> T  </i>
    <i type="logical" name="KBLOWUP"> T  </i>
   </separator>
   <separator name="electronic projectors" >
    <i type="logical" name="LREAL"> T  </i>
    <v name="ROPT">     -0.00025000</v>
    <i type="int" name="LMAXPAW">  -100</i>
    <i type="int" name="LMAXMIX">     2</i>
    <i type="logical" name="NLSPLINE"> F  </i>
   </separator>
   <separator name="electronic startup" >
    <i type="int" name="ISTART">     0</i>
    <i type="int" name="ICHARG">     2</i>
    <i type="int" name="INIWAV">     1</i>
   </separator>
   <separator name="electronic spin" >
    <i type="int" name="ISPIN">     1</i>
    <i type="logical" name="LNONCOLLINEAR"> F  </i>
    <v name="MAGMOM">      1.00000000      1.00000000      1.00000000      1.00000000</v>
    <i name="NUPDOWN">     -1.00000000</i>
    <i type="logical" name="LSORBIT"> F  </i>
    <v name="SAXIS">      0.00000000      0.00000000      1.00000000</v>
    <i type="logical" name="LSPIRAL"> F  </i>
    <v name="QSPIRAL">      0.00000000      0.00000000      0.00000000</v>
    <i type="logical" name="LZEROZ"> F  </i>
   </separator>
   <separator name="electronic exchange-correlation" >
    <i type="logical" name="LASPH"> F  </i>
    <i type="logical" name="LMETAGGA"> F  </i>
   </separator>
   <separator name="electronic convergence" >
    <i type="int" name="NELM">    60</i>
    <i type="int" name="NELMDL">    -5</i>
    <i type="int" name="NELMIN">     4</i>
    <i name="ENINI">    400.00000000</i>
    <separator name="electronic convergence detail" >
     <i type="logical" name="LDIAG"> T  </i>
     <i type="logical" name="LSUBROT"> F  </i>
     <i name="WEIMIN">      0.00100000</i>
     <i name="EBREAK">      0.00000002</i>
     <i name="DEPER">      0.30000000</i>
     <i type="int" name="NRMM">     4</i>
     <i name="TIME">      0.40000000</i>
    </separator>
   </separator>
   <separator name="electronic mixer" >
    <i name="AMIX">      0.40000000</i>
    <i name="BMIX">      1.00000000</i>
    <i name="AMIN">      0.10000000</i>
    <i name="AMIX_MAG">      1.60000000</i>
    <i name="BMIX_MAG">      1.00000000</i>
    <separator name="electronic mixer details" >
     <i type="int" name="IMIX">     4</i>
     <i type="logical" name="MIXFIRST"> F  </i>
     <i type="int" name="MAXMIX">   -45</i>
     <i name="WC">    100.00000000</i>
     <i type="int" name="INIMIX">     1</i>
     <i type="int" name="MIXPRE">     1</i>
     <i type="int" name="MREMOVE">     5</i>
    </separator>
   </separator>
   <separator name="electronic dipolcorrection" >
    <i type="logical" name="LDIPOL"> F  </i>
    <i type="logical" name="LMONO"> F  </i>
    <i type="int" name="IDIPOL">     0</i>
    <i name="EPSILON">      1.00000000</i>
    <v name="DIPOL">   -100.00000000   -100.00000000   -100.00000000</v>
    <i name="EFIELD">      0.00000000</i>
   </separator>
  </separator>
  <separator name="grids" >
   <i type="int" name="NGX">    24</i>
   <i type="int" name="NGY">    24</i>
   <i type="int" name="NGZ">    24</i>
   <i type="int" name="NGXF">    48</i>
   <i type="int" name="NGYF">    48</i>
   <i type="int" name="NGZF">    48</i>
   <i type="logical" name="ADDGRID"> F  </i>
  </separator>
  <separator name="ionic" >
   <i type="int" name="NSW">   100</i>
   <i type="int" name="IBRION">     2</i>
   <i type="int" name="MDALGO">     0</i>
   <i type="int" name="ISIF">     4</i>
   <i name="PSTRESS">      0.00000000</i>
   <i name="EDIFFG">      0.00001000</i>
   <i type="int" name="NFREE">     1</i>
   <i name="POTIM">      0.50000000</i>
   <i name="SMASS">     -3.00000000</i>
   <i name="SCALEE">      1.00000000</i>
  </separator>
  <separator name="ionic md" >
   <i name="TEBEG">      0.00010000</i>
   <i name="TEEND">      0.00010000</i>
   <i type="int" name="NBLOCK">     1</i>
   <i type="int" name="KBLOCK">   100</i>
   <i type="int" name="NPACO">   256</i>
   <i name="APACO">     10.00000000</i>
  </separator>
  <separator name="symmetry" >
   <i type="int" name="ISYM">     2</i>
   <i name="SYMPREC">      0.00001000</i>
  </separator>
  <separator name="dos" >
   <i type="int" name="LORBIT">     0</i>
   <v name="RWIGS">     -1.00000000</v>
   <i type="int" name="NEDOS">   301</i>
   <i name="EMIN">     10.00000000</i>
   <i name="EMAX">    -10.00000000</i>
   <i name="EFERMI">      0.00000000</i>
  </separator>
  <separator name="writing" >
   <i type="int" name="NWRITE">     2</i>
   <i type="logical" name="LWAVE"> F  </i>
   <i type="logical" name="LDOWNSAMPLE"> F  </i>
   <i type="logical" name="LCHARG"> F  </i>
   <i type="logical" name="LPARD"> F  </i>
   <i type="logical" name="LVTOT"> F  </i>
   <i type="logical" name="LVHAR"> F  </i>
   <i type="logical" name="LELF"> F  </i>
   <i type="logical" name="LOPTICS"> F  </i>
   <v name="STM">      0.00000000      0.00000000      0.00000000      0.00000000      0.00000000      0.00000000      0.00000000</v>
  </separator>
  <separator name="performance" >
   <i type="int" name="NPAR">    14</i>
   <i type="int" name="NSIM">     4</i>
   <i type="int" name="NBLK">    -1</i>
   <i type="logical" name="LPLANE"> T  </i>
   <i type="logical" name="LSCALAPACK"> T  </i>
   <i type="logical" name="LSCAAWARE"> F  </i>
   <i type="logical" name="LSCALU"> F  </i>
   <i type="logical" name="LASYNC"> F  </i>
   <i type="logical" name="LORBITALREAL"> F  </i>
  </separator>
  <separator name="miscellaneous" >
   <i type="int" name="IDIOT">     3</i>
   <i type="int" name="PHON_NSTRUCT">    -1</i>
   <i type="logical" name="LMUSIC"> F  </i>
   <v name="POMASS">     26.98100000</v>
   <v name="DARWINR">      0.00000000</v>
   <v name="DARWINV">      1.00000000</v>
   <i type="logical" name="LCORR"> T  </i>
  </separator>
  <i type="logical" name="GGA_COMPAT"> T  </i>
  <i type="logical" name="LBERRY"> F  </i>
  <i type="int" name="ICORELEVEL">     0</i>
  <i type="logical" name="LDAU"> F  </i>
  <i type="int" name="I_CONSTRAINED_M">     0</i>
  <separator name="electronic exchange-correlation" >
   <i type="string" name="GGA">--</i>
   <i type="int" name="VOSKOWN">     0</i>
   <i type="logical" name="LHFCALC"> F  </i>
   <i type="string" name="PRECFOCK"></i>
   <i type="logical" name="LSYMGRAD"> F  </i>
   <i type="logical" name="LHFONE"> F  </i>
   <i type="logical" name="LRHFCALC"> F  </i>
   <i type="logical" name="LTHOMAS"> F  </i>
   <i type="logical" name="LMODELHF"> F  </i>
   <i type="logical" name="LFOCKACE"> F  </i>
   <i name="ENCUT4O">     -1.00000000</i>
   <i type="int" name="EXXOEP">     0</i>
   <i type="int" name="FOURORBIT">     0</i>
   <i name="AEXX">      0.00000000</i>
   <i name="HFALPHA">      0.00000000</i>
   <i name="MCALPHA">      0.00000000</i>
   <i name="ALDAX">      1.00000000</i>
   <i name="AGGAX">      1.00000000</i>
   <i name="ALDAC">      1.00000000</i>
   <i name="AGGAC">      1.00000000</i>
   <i type="int" name="NKREDX">     1</i>
   <i type="int" name="NKREDY">     1</i>
   <i type="int" name="NKREDZ">     1</i>
   <i type="logical" name="SHIFTRED"> F  </i>
   <i type="logical" name="ODDONLY"> F  </i>
   <i type="logical" name="EVENONLY"> F  </i>
   <i type="int" name="LMAXFOCK">     0</i>
   <i type="int" name="NMAXFOCKAE">     0</i>
   <i type="logical" name="LFOCKAEDFT"> F  </i>
   <i name="HFSCREEN">      0.00000000</i>
   <i name="HFSCREENC">      0.00000000</i>
   <i type="int" name="NBANDSGWLOW">     0</i>
  </separator>
  <separator name="vdW DFT" >
   <i type="logical" name="LUSE_VDW"> F  </i>
   <i type="int" name="IVDW_NL">     1</i>
   <i type="logical" name="LSPIN_VDW"> F  </i>
   <i name="Zab_VDW">     -0.84910000</i>
   <i name="PARAM1">      0.12340000</i>
   <i name="PARAM2">      1.00000000</i>
   <i name="PARAM3">      0.00000000</i>
  </separator>
  <separator name="model GW" >
   <i type="int" name="MODEL_GW">     0</i>
   <i name="MODEL_EPS0">      6.42396988</i>
   <i name="MODEL_ALPHA">      1.00000000</i>
  </separator>
  <separator name="linear response parameters" >
   <i type="logical" name="LEPSILON"> F  </i>
   <i type="logical" name="LRPA"> F  </i>
   <i type="logical" name="LNABLA"> F  </i>
   <i type="logical" name="LVEL"> F  </i>
   <i name="CSHIFT">      0.10000000</i>
   <i name="OMEGAMAX">     -1.00000000</i>
   <i name="DEG_THRESHOLD">      0.00200000</i>
   <i name="RTIME">     -0.10000000</i>
   <i name="WPLASMAI">      0.00000000</i>
   <v name="DFIELD">      0.00000000      0.00000000      0.00000000</v>
   <v name="WPLASMA">      0.00000000      0.00000000      0.00000000      0.00000000      0.00000000      0.00000000      0.00000000      0.00000000      0.00000000</v>
  </separator>
  <separator name="orbital magnetization" >
   <i type="logical" name="NUCIND"> F  </i>
   <v name="MAGPOS">      0.00000000      0.00000000      0.00000000</v>
   <i type="logical" name="LNICSALL"> T  </i>
   <i type="logical" name="ORBITALMAG"> F  </i>
   <i type="logical" name="LMAGBLOCH"> F  </i>
   <i type="logical" name="LCHIMAG"> F  </i>
   <i type="logical" name="LGAUGE"> T  </i>
   <i type="int" name="MAGATOM">     0</i>
   <v name="MAGDIPOL">      0.00000000      0.00000000      0.00000000</v>
   <v name="AVECCONST">      0.00000000      0.00000000      0.00000000</v>
  </separator>
  <separator name="response functions" >
   <i type="logical" name="LALL_IN_ONE"> F  </i>
   <i type="int" name="IALL_IN_ONE">    -1</i>
   <i type="int" name="NBANDS_WAVE">    -1</i>
   <i type="logical" name="LFINITE_TEMPERATURE"> F  </i>
   <i type="logical" name="LADDER"> F  </i>
   <i type="logical" name="LRPAFORCE"> F  </i>
   <i type="logical" name="LFXC"> F  </i>
   <i type="logical" name="LHARTREE"> T  </i>
   <i type="int" name="IBSE">     0</i>
   <v type="int" name="KPOINT">    -1     0     0     0</v>
   <i type="logical" name="LTCTC"> F  </i>
   <i type="logical" name="LTCTE"> F  </i>
   <i type="logical" name="LTETE"> F  </i>
   <i type="logical" name="LTRIPLET"> F  </i>
   <i type="logical" name="LFXCEPS"> F  </i>
   <i type="logical" name="LFXHEG"> F  </i>
   <i type="int" name="NATURALO">     2</i>
   <i type="logical" name="LHOLEGF"> F  </i>
   <i type="logical" name="L2ORDER"> F  </i>
   <i type="logical" name="LDMP1"> F  </i>
   <i type="logical" name="LMP2LT"> F  </i>
   <i type="logical" name="LSMP2LT"> F  </i>
   <i type="logical" name="LGWLF"> F  </i>
   <i name="ENCUTGW">     -1.60000002</i>
   <i name="ENCUTGWSOFT">     -1.60000002</i>
   <i name="ENCUTLF">     -1.00000000</i>
   <i type="logical" name="LESF_SPLINES"> F  </i>
   <i type="int" name="LMAXMP2">    -1</i>
   <i name="SCISSOR">      0.00000000</i>
   <i type="int" name="NOMEGA">     0</i>
   <i type="int" name="NOMEGAR">     0</i>
   <i type="int" name="NBANDSGW">    -1</i>
   <i type="int" name="NBANDSO">    -1</i>
   <i type="int" name="NBANDSV">    -1</i>
   <i type="int" name="NELMGW">     1</i>
   <i type="int" name="NELMHF">     1</i>
   <i type="int" name="DIM">     3</i>
   <i type="int" name="IESPILON">     4</i>
   <i type="int" name="ANTIRES">     0</i>
   <i name="OMEGAMAX">    -30.00000000</i>
   <i name="OMEGAMIN">    -30.00000000</i>
   <i name="OMEGATL">   -200.00000000</i>
   <i type="int" name="OMEGAGRID">     0</i>
   <i name="CSHIFT">     -0.10000000</i>
   <i type="logical" name="LSELFENERGY"> F  </i>
   <i type="logical" name="LSPECTRAL"> F  </i>
   <i type="logical" name="LSPECTRALGW"> F  </i>
   <i type="logical" name="LSINGLES"> F  </i>
   <i type="logical" name="LFERMIGW"> F  </i>
   <i type="logical" name="ODDONLYGW"> F  </i>
   <i type="logical" name="EVENONLYGW"> F  </i>
   <i type="int" name="NKREDLFX">     1</i>
   <i type="int" name="NKREDLFY">     1</i>
   <i type="int" name="NKREDLFZ">     1</i>
   <i type="int" name="MAXMEM">  2800</i>
   <i type="int" name="TELESCOPE">     0</i>
   <i type="int" name="NTAUPAR">    -1</i>
   <i type="int" name="NOMEGAPAR">    -1</i>
   <i name="DAMP_NEWTON">      0.80000001</i>
   <i name="LAMBDA">      1.00000000</i>
  </separator>
  <separator name="External order field" >
   <i name="OFIELD_KAPPA">      0.00000000</i>
   <v name="OFIELD_K">      0.00000000      0.00000000      0.00000000</v>
   <i name="OFIELD_Q6_NEAR">      0.00000000</i>
   <i name="OFIELD_Q6_FAR">      0.00000000</i>
   <i name="OFIELD_A">      0.00000000</i>
  </separator>
  <separator name="optional k-points parameters" >
   <i type="int" name="KPOINTS_OPT_MODE">     1</i>
   <i type="logical" name="LKPOINTS_OPT"> F  </i>
  </separator>
 </parameters>
 <atominfo>
  <atoms>       4 </atoms>
  <types>       1 </types>
  <array name="atoms" >
   <dimension dim="1">ion</dimension>
   <field type="string">element</field>
   <field type="int">atomtype</field>
   <set>
    <rc><c>Al</c><c>   1</c></rc>
    <rc><c>Al</c><c>   1</c></rc>
    <rc><c>Al</c><c>   1</c></rc>
    <rc><c>Al</c><c>   1</c></rc>
   </set>
  </array>
  <array name="atomtypes" >
   <dimension dim="1">type</dimension>
   <field type="int">atomspertype</field>
   <field type="string">element</field>
   <field>mass</field>
   <field>valence</field>
   <field type="string">pseudopotential</field>
   <set>
    <rc><c>   4</c><c>Al</c><c>     26.98100000</c><c>      3.00000000</c><c>  PAW_PBE Al 04Jan2001                  </c></rc>
   </set>
  </array>
 </atominfo>
 <structure name="initialpos" >
  <crystal>
   <varray name="basis" >
    <v>       3.49867884       0.00000000       0.00000000 </v>
    <v>      -0.00000000       3.49867884       0.00000000 </v>
    <v>       0.00000000       0.00000000       3.49867884 </v>
   </varray>
   <i name="volume">     42.82646584 </i>
   <varray name="rec_basis" >
    <v>       0.28582218       0.00000000      -0.00000000 </v>
    <v>       0.00000000       0.28582218       0.00000000 </v>
    <v>      -0.00000000      -0.00000000       0.28582218 </v>
   </varray>
  </crystal>
  <varray name="positions" >
   <v>       0.00000000       0.00000000       0.00000000 </v>
   <v>       0.00000000       0.50000000       0.50000000 </v>
   <v>       0.50000000       0.00000000       0.50000000 </v>
   <v>       0.50000000       0.50000000       0.00000000 </v>
  </varray>
 </structure>
 <calculation>
  <scstep>
   <time name="dav">   15.44    7.73</time>
   <time name="total">   15.49    7.76</time>
   <energy>
    <i name="alphaZ">     -1.25485392 </i>
    <i name="ewald">   -339.66498516 </i>
    <i name="hartreedc">     -0.31510948 </i>
    <i name="XCdc">   -101.66524888 </i>
    <i name="pawpsdc">    264.80062850 </i>
    <i name="pawaedc">   -136.98248303 </i>
    <i name="eentropy">     -0.00055129 </i>
    <i name="bandstr">    104.65386514 </i>
    <i name="atom">    214.15261729 </i>
    <i name="e_fr_energy">      3.72387917 </i>
    <i name="e_wo_entrp">      3.72443046 </i>
    <i name="e_0_energy">      3.72406294 </i>
   </energy>
  </scstep>
  <scstep>
   <time name="dav">   22.50   11.26</time>
   <time name="total">   22.51   11.26</time>
   <energy>
    <i name="e_fr_energy">    -10.87683910 </i>
    <i name="e_wo_entrp">    -10.87827078 </i>
    <i name="e_0_energy">    -10.87731633 </i>
   </energy>
  </scstep>
  <scstep>
   <time name="dav">   21.26   10.66</time>
   <time name="total">   21.27   10.66</time>
   <energy>
    <i name="e_fr_energy">    -10.94114202 </i>
    <i name="e_wo_entrp">    -10.94264293 </i>
    <i name="e_0_energy">    -10.94164232 </i>
   </energy>
  </scstep>
  <scstep>
   <time name="dav">   26.29   13.15</time>
   <time name="total">   26.30   13.15</time>
   <energy>
    <i name="e_fr_energy">    -10.94127151 </i>
    <i name="e_wo_entrp">    -10.94277227 </i>
    <i name="e_0_energy">    -10.94177177 </i>
   </energy>
  </scstep>
  <scstep>
   <time name="dav">   19.66    9.83</time>
   <time name="total">   20.17   10.10</time>
   <energy>
    <i name="e_fr_energy">    -10.94127157 </i>
    <i name="e_wo_entrp">    -10.94277232 </i>
    <i name="e_0_energy">    -10.94177182 </i>
   </energy>
  </scstep>
  <scstep>
   <time name="diag">    2.45    1.23</time>
   <time name="diis">    4.54    2.40</time>
   <time name="orth">    0.16    0.08</time>
   <time name="total">    7.71    3.99</time>
   <energy>
    <i name="e_fr_energy">    -10.81192755 </i>
    <i name="e_wo_entrp">    -10.81342221 </i>
    <i name="e_0_energy">    -10.81242577 </i>
   </energy>
  </scstep>
  <scstep>
   <time name="diag">    2.85    1.43</time>
   <time name="diis">    4.56    2.42</time>
   <time name="orth">    0.16    0.08</time>
   <time name="total">    8.13    4.21</time>
   <energy>
    <i name="e_fr_energy">    -10.72715608 </i>
    <i name="e_wo_entrp">    -10.72864635 </i>
    <i name="e_0_energy">    -10.72765283 </i>
   </energy>
  </scstep>
  <scstep>
   <time name="diag">    2.46    1.23</time>
   <time name="diis">    4.56    2.41</time>
   <time name="orth">    0.16    0.08</time>
   <time name="total">    7.73    4.00</time>
   <energy>
    <i name="e_fr_energy">    -10.72728561 </i>
    <i name="e_wo_entrp">    -10.72877493 </i>
    <i name="e_0_energy">    -10.72778205 </i>
   </energy>
  </scstep>
  <scstep>
   <time name="diag">    2.85    1.45</time>
   <time name="diis">    4.55    2.40</time>
   <time name="orth">    0.16    0.08</time>
   <time name="total">    8.11    4.22</time>
   <energy>
    <i name="e_fr_energy">    -10.72707016 </i>
    <i name="e_wo_entrp">    -10.72855898 </i>
    <i name="e_0_energy">    -10.72756643 </i>
   </energy>
  </scstep>
  <scstep>
   <time name="diag">    2.56    1.28</time>
   <time name="diis">    4.56    2.41</time>
   <time name="orth">    0.21    0.12</time>
   <time name="total">    7.87    4.09</time>
   <energy>
    <i name="e_fr_energy">    -10.72707555 </i>
    <i name="e_wo_entrp">    -10.72856454 </i>
    <i name="e_0_energy">    -10.72757188 </i>
   </energy>
  </scstep>
  <scstep>
   <time name="diag">    2.45    1.23</time>
   <time name="diis">    4.54    2.40</time>
   <time name="orth">    0.17    0.08</time>
   <time name="total">    7.71    4.00</time>
   <energy>
    <i name="e_fr_energy">    -10.72707637 </i>
    <i name="e_wo_entrp">    -10.72856532 </i>
    <i name="e_0_energy">    -10.72757268 </i>
   </energy>
  </scstep>
  <scstep>
   <time name="diag">    2.49    1.25</time>
   <time name="diis">    4.08    2.40</time>
   <time name="orth">    0.17    0.08</time>
   <time name="total">    7.29    4.01</time>
   <energy>
    <i name="e_fr_energy">    -10.72707741 </i>
    <i name="e_wo_entrp">    -10.72856640 </i>
    <i name="e_0_energy">    -10.72757374 </i>
   </energy>
  </scstep>
  <scstep>
   <time name="diag">    3.28    1.65</time>
   <time name="diis">    3.55    2.21</time>
   <time name="orth">    0.17    0.08</time>
   <time name="total">    7.04    3.96</time>
   <energy>
    <i name="alphaZ">     -1.25485392 </i>
    <i name="ewald">   -339.66498516 </i>
    <i name="hartreedc">     -1.08515494 </i>
    <i name="XCdc">   -100.80579903 </i>
    <i name="pawpsdc">   1345.47651780 </i>
    <i name="pawaedc">  -1218.24053120 </i>
    <i name="eentropy">      0.00148898 </i>
    <i name="bandstr">     90.69362304 </i>
    <i name="atom">    214.15261729 </i>
    <i name="e_fr_energy">    -10.72707713 </i>
    <i name="e_wo_entrp">    -10.72856612 </i>
    <i name="e_0_energy">    -10.72757346 </i>
   </energy>
  </scstep>
  <structure>
   <crystal>
    <varray name="basis" >
     <v>       3.49867884       0.00000000       0.00000000 </v>
     <v>      -0.00000000       3.49867884       0.00000000 </v>
     <v>       0.00000000       0.00000000       3.49867884 </v>
    </varray>
    <i name="volume">     42.82646584 </i>
    <varray name="rec_basis" >
     <v>       0.28582218       0.00000000      -0.00000000 </v>
     <v>       0.00000000       0.28582218       0.00000000 </v>
     <v>      -0.00000000      -0.00000000       0.28582218 </v>
    </varray>
   </crystal>
   <varray name="positions" >
    <v>       0.00000000       0.00000000       0.00000000 </v>
    <v>       0.00000000       0.50000000       0.50000000 </v>
    <v>       0.50000000       0.00000000       0.50000000 </v>
    <v>       0.50000000       0.50000000       0.00000000 </v>
   </varray>
  </structure>
  <varray name="forces" >
   <v>       0.00000000      -0.00000000       0.00000000 </v>
   <v>      -0.00000000      -0.00000000      -0.00000000 </v>
   <v>      -0.00000000       0.00000000      -0.00000000 </v>
   <v>       0.00000000      -0.00000000       0.00000000 </v>
  </varray>
  <varray name="stress" >
   <v>     859.43875853      -0.00000000       0.00000000 </v>
   <v>      -0.00000000     859.43875853       0.00000000 </v>
   <v>       0.00000000       0.00000000     859.43875853 </v>
  </varray>
  <energy>
   <i name="e_fr_energy">    -10.72707713 </i>
   <i name="e_wo_entrp">    -10.72856612 </i>
   <i name="e_0_energy">    -10.72757346 </i>
  </energy>
  <time name="totalsc">  181.66   92.85</time>
  <eigenvalues>
   <array>
    <dimension dim="1">band</dimension>
    <dimension dim="2">kpoint</dimension>
    <dimension dim="3">spin</dimension>
    <field>eigene</field>
    <field>occ</field>
    <set>
     <set comment="spin 1">
      <set comment="kpoint 1">
       <r>   -1.1153    1.0000 </r>
       <r>    9.4066    1.0000 </r>
       <r>    9.4066    1.0000 </r>
       <r>    9.4066    1.0000 </r>
       <r>   11.2871    1.0000 </r>
       <r>   11.2871    1.0000 </r>
       <r>   11.2871    1.0000 </r>
       <r>   18.6109   -0.0000 </r>
       <r>   18.6109   -0.0000 </r>
       <r>   18.6109   -0.0000 </r>
       <r>   21.4469    0.0000 </r>
       <r>   21.4469    0.0000 </r>
       <r>   21.4469    0.0000 </r>
       <r>   21.4469    0.0000 </r>
      </set>
      <set comment="kpoint 2">
       <r>   -1.0925    1.0000 </r>
       <r>    9.0302    1.0000 </r>
       <r>    9.4259    1.0000 </r>
       <r>    9.4259    1.0000 </r>
       <r>   11.3046    1.0000 </r>
       <r>   11.3046    1.0000 </r>
       <r>   11.6977    1.0000 </r>
       <r>   18.3514   -0.0000 </r>
       <r>   18.3514   -0.0000 </r>
       <r>   18.6336   -0.0000 </r>
       <r>   21.3384    0.0000 </r>
       <r>   21.3384    0.0000 </r>
       <r>   21.4635    0.0000 </r>
       <r>   21.4636    0.0000 </r>
      </set>
      <set comment="kpoint 3">
       <r>   -1.0242    1.0000 </r>
       <r>    8.3027    1.0000 </r>
       <r>    9.4837    1.0000 </r>
       <r>    9.4837    1.0000 </r>
       <r>   11.3564    1.0000 </r>
       <r>   11.3564    1.0000 </r>
       <r>   12.5274    1.0000 </r>
       <r>   17.7647   -0.0000 </r>
       <r>   17.7647   -0.0000 </r>
       <r>   18.7015    0.0000 </r>
       <r>   21.0393    0.0000 </r>
       <r>   21.0393    0.0000 </r>
       <r>   21.5134    0.0000 </r>
       <r>   21.5134    0.0000 </r>
      </set>
      <set comment="kpoint 4">
       <r>   -0.9105    1.0000 </r>
       <r>    7.5130    1.0000 </r>
       <r>    9.5799    1.0000 </r>
       <r>    9.5799    1.0000 </r>
       <r>   11.4412    1.0000 </r>
       <r>   11.4412    1.0000 </r>
       <r>   13.4880   -0.0342 </r>
       <r>   17.0745   -0.0000 </r>
       <r>   17.0745   -0.0000 </r>
       <r>   18.8149    0.0000 </r>
       <r>   20.6096    0.0000 </r>
       <r>   20.6096    0.0000 </r>
       <r>   21.5965    0.0000 </r>
       <r>   21.5965    0.0000 </r>
      </set>
      <set comment="kpoint 5">
       <r>   -0.7515    1.0000 </r>
       <r>    6.7268    1.0000 </r>
       <r>    9.7148    1.0000 </r>
       <r>    9.7148    1.0000 </r>
       <r>   11.5567    1.0000 </r>
       <r>   11.5567    1.0000 </r>
       <r>   14.5135   -0.0000 </r>
       <r>   16.3656   -0.0000 </r>
       <r>   16.3656   -0.0000 </r>
       <r>   18.9735    0.0000 </r>
       <r>   20.1078    0.0000 </r>
       <r>   20.1078    0.0000 </r>
       <r>   21.7130    0.0000 </r>
       <r>   21.7130    0.0000 </r>
      </set>
      <set comment="kpoint 6">
       <r>   -0.5475    1.0000 </r>
       <r>    5.9633    1.0000 </r>
       <r>    9.8884    1.0000 </r>
       <r>    9.8884    1.0000 </r>
       <r>   11.6988    1.0000 </r>
       <r>   11.6988    1.0000 </r>
       <r>   15.5848   -0.0000 </r>
       <r>   15.6708   -0.0000 </r>
       <r>   15.6708   -0.0000 </r>
       <r>   19.1769    0.0000 </r>
       <r>   19.5791    0.0000 </r>
       <r>   19.5791    0.0000 </r>
       <r>   21.8629    0.0000 </r>
       <r>   21.8629    0.0000 </r>
      </set>
      <set comment="kpoint 7">
       <r>   -0.2989    1.0000 </r>
       <r>    5.2298    1.0000 </r>
       <r>   10.1008    1.0000 </r>
       <r>   10.1008    1.0000 </r>
       <r>   11.8616    1.0000 </r>
       <r>   11.8616    1.0000 </r>
       <r>   15.0020   -0.0000 </r>
       <r>   15.0020   -0.0000 </r>
       <r>   16.6943   -0.0000 </r>
       <r>   19.0559    0.0000 </r>
       <r>   19.0559    0.0000 </r>
       <r>   19.4242    0.0000 </r>
       <r>   22.0462    0.0000 </r>
       <r>   22.0462    0.0000 </r>
      </set>
      <set comment="kpoint 8">
       <r>   -0.0059    1.0000 </r>
       <r>    4.5301    1.0000 </r>
       <r>   10.3519    1.0000 </r>
       <r>   10.3519    1.0000 </r>
       <r>   12.0366    1.0000 </r>
       <r>   12.0366    1.0000 </r>
       <r>   14.3663   -0.0000 </r>
       <r>   14.3663   -0.0000 </r>
       <r>   17.8385   -0.0000 </r>
       <r>   18.5640   -0.0000 </r>
       <r>   18.5640   -0.0000 </r>
       <r>   19.7179    0.0000 </r>
       <r>   22.2632    0.0000 </r>
       <r>   22.2632    0.0000 </r>
      </set>
      <set comment="kpoint 9">
       <r>    0.3309    1.0000 </r>
       <r>    3.8665    1.0000 </r>
       <r>   10.6421    1.0000 </r>
       <r>   10.6421    1.0000 </r>
       <r>   12.2119    1.0000 </r>
       <r>   12.2119    1.0000 </r>
       <r>   13.7663   -0.0004 </r>
       <r>   13.7663   -0.0004 </r>
       <r>   18.1258   -0.0000 </r>
       <r>   18.1258   -0.0000 </r>
       <r>   19.0163    0.0000 </r>
       <r>   20.0564    0.0000 </r>
       <r>   22.5138    0.0000 </r>
       <r>   22.5138    0.0000 </r>
      </set>
      <set comment="kpoint 10">
       <r>    0.7111    1.0000 </r>
       <r>    3.2405    1.0000 </r>
       <r>   10.9712    1.0000 </r>
       <r>   10.9712    1.0000 </r>
       <r>   12.3712    1.0000 </r>
       <r>   12.3712    1.0000 </r>
       <r>   13.2037    0.5854 </r>
       <r>   13.2037    0.5854 </r>
       <r>   17.7643   -0.0000 </r>
       <r>   17.7643   -0.0000 </r>
       <r>   20.2225    0.0000 </r>
       <r>   20.4394    0.0000 </r>
       <r>   22.7980    0.0000 </r>
       <r>   22.7982    0.0000 </r>
      </set>
      <set comment="kpoint 11">
       <r>    1.1342    1.0000 </r>
       <r>    2.6533    1.0000 </r>
       <r>   11.3397    1.0000 </r>
       <r>   11.3397    1.0000 </r>
       <r>   12.4951    1.0000 </r>
       <r>   12.4951    1.0000 </r>
       <r>   12.6793    1.0004 </r>
       <r>   12.6793    1.0004 </r>
       <r>   17.5038   -0.0000 </r>
       <r>   17.5038   -0.0000 </r>
       <r>   20.8666    0.0000 </r>
       <r>   21.4564    0.0000 </r>
       <r>   22.4111    0.0000 </r>
       <r>   23.1158    0.0000 </r>
      </set>
      <set comment="kpoint 12">
       <r>    1.5992    1.0000 </r>
       <r>    2.1059    1.0000 </r>
       <r>   11.7472    1.0000 </r>
       <r>   11.7472    1.0000 </r>
       <r>   12.1937    1.0000 </r>
       <r>   12.1937    1.0000 </r>
       <r>   12.5636    1.0000 </r>
       <r>   12.5636    1.0000 </r>
       <r>   17.3663   -0.0000 </r>
       <r>   17.3663   -0.0000 </r>
       <r>   21.3375    0.0000 </r>
       <r>   21.8516    0.0000 </r>
       <r>   22.7148    0.0000 </r>
       <r>   23.4667    0.0000 </r>
      </set>
      <set comment="kpoint 13">
       <r>   -1.0697    1.0000 </r>
       <r>    9.0495    1.0000 </r>
       <r>    9.0495    1.0000 </r>
       <r>    9.4451    1.0000 </r>
       <r>   11.3216    1.0000 </r>
       <r>   11.7148    1.0000 </r>
       <r>   11.7148    1.0000 </r>
       <r>   18.1078   -0.0000 </r>
       <r>   18.3735   -0.0000 </r>
       <r>   18.3735   -0.0000 </r>
       <r>   21.3555    0.0000 </r>
       <r>   21.3559    0.0000 </r>
       <r>   21.4856    0.0000 </r>
       <r>   21.7671    0.0000 </r>
      </set>
      <set comment="kpoint 14">
       <r>   -1.0015    1.0000 </r>
       <r>    8.3225    1.0000 </r>
       <r>    9.1077    1.0000 </r>
       <r>    9.5029    1.0000 </r>
       <r>   11.3725    1.0000 </r>
       <r>   11.7656    1.0000 </r>
       <r>   12.5435    1.0000 </r>
       <r>   17.5482   -0.0000 </r>
       <r>   17.7862   -0.0000 </r>
       <r>   18.4391   -0.0000 </r>
       <r>   21.0576    0.0000 </r>
       <r>   21.2590    0.0000 </r>
       <r>   21.4066    0.0000 </r>
       <r>   21.8177    0.0000 </r>
      </set>
      <set comment="kpoint 15">
       <r>   -0.8878    1.0000 </r>
       <r>    7.5331    1.0000 </r>
       <r>    9.2048    1.0000 </r>
       <r>    9.5992    1.0000 </r>
       <r>   11.4553    1.0000 </r>
       <r>   11.8490    1.0000 </r>
       <r>   13.5029   -0.0320 </r>
       <r>   16.8764   -0.0000 </r>
       <r>   17.0954   -0.0000 </r>
       <r>   18.5499   -0.0000 </r>
       <r>   20.6298    0.0000 </r>
       <r>   20.8323    0.0000 </r>
       <r>   21.4922    0.0000 </r>
       <r>   21.9033    0.0000 </r>
      </set>
      <set comment="kpoint 16">
       <r>   -0.7288    1.0000 </r>
       <r>    6.7473    1.0000 </r>
       <r>    9.3404    1.0000 </r>
       <r>    9.7341    1.0000 </r>
       <r>   11.5673    1.0000 </r>
       <r>   11.9622    1.0000 </r>
       <r>   14.5265   -0.0000 </r>
       <r>   16.1840   -0.0000 </r>
       <r>   16.3862   -0.0000 </r>
       <r>   18.7047    0.0000 </r>
       <r>   20.1305    0.0000 </r>
       <r>   20.3269    0.0000 </r>
       <r>   21.6122    0.0000 </r>
       <r>   22.0233    0.0000 </r>
      </set>
      <set comment="kpoint 17">
       <r>   -0.5249    1.0000 </r>
       <r>    5.9840    1.0000 </r>
       <r>    9.5144    1.0000 </r>
       <r>    9.9077    1.0000 </r>
       <r>   11.7030    1.0000 </r>
       <r>   12.1016    1.0000 </r>
       <r>   15.5050   -0.0000 </r>
       <r>   15.5953   -0.0000 </r>
       <r>   15.6912   -0.0000 </r>
       <r>   18.9036    0.0000 </r>
       <r>   19.6050    0.0000 </r>
       <r>   19.7923    0.0000 </r>
       <r>   21.7670    0.0000 </r>
       <r>   22.1779    0.0000 </r>
      </set>
      <set comment="kpoint 18">
       <r>   -0.2763    1.0000 </r>
       <r>    5.2508    1.0000 </r>
       <r>    9.7264    1.0000 </r>
       <r>   10.1201    1.0000 </r>
       <r>   11.8540    1.0000 </r>
       <r>   12.2611    1.0000 </r>
       <r>   14.8584   -0.0000 </r>
       <r>   15.0223   -0.0000 </r>
       <r>   16.7013   -0.0000 </r>
       <r>   19.0859    0.0000 </r>
       <r>   19.1463    0.0000 </r>
       <r>   19.2619    0.0000 </r>
       <r>   21.9568    0.0000 </r>
       <r>   22.3671    0.0000 </r>
      </set>
      <set comment="kpoint 19">
       <r>    0.0165    1.0000 </r>
       <r>    4.5514    1.0000 </r>
       <r>    9.9758    1.0000 </r>
       <r>   10.3713    1.0000 </r>
       <r>   12.0054    1.0000 </r>
       <r>   12.4326    1.0000 </r>
       <r>   14.2574   -0.0000 </r>
       <r>   14.3865   -0.0000 </r>
       <r>   17.8400   -0.0000 </r>
       <r>   18.5999   -0.0000 </r>
       <r>   18.7602    0.0000 </r>
       <r>   19.4328    0.0000 </r>
       <r>   22.1826    0.0000 </r>
       <r>   22.5912    0.0000 </r>
      </set>
      <set comment="kpoint 20">
       <r>    0.3533    1.0000 </r>
       <r>    3.8880    1.0000 </r>
       <r>   10.2615    1.0000 </r>
       <r>   10.6615    1.0000 </r>
       <r>   12.1278    1.0000 </r>
       <r>   12.6042    1.0001 </r>
       <r>   13.7236   -0.0012 </r>
       <r>   13.7863   -0.0003 </r>
       <r>   18.1702   -0.0000 </r>
       <r>   18.3090   -0.0000 </r>
       <r>   19.0085    0.0000 </r>
       <r>   19.7627    0.0000 </r>
       <r>   22.4458    0.0000 </r>
       <r>   22.8502    0.0000 </r>
      </set>
      <set comment="kpoint 21">
       <r>    0.7334    1.0000 </r>
       <r>    3.2621    1.0000 </r>
       <r>   10.5819    1.0000 </r>
       <r>   10.9907    1.0000 </r>
       <r>   12.1585    1.0000 </r>
       <r>   12.7605    1.0025 </r>
       <r>   13.2235    0.5018 </r>
       <r>   13.3071    0.1796 </r>
       <r>   17.8210   -0.0000 </r>
       <r>   17.9306   -0.0000 </r>
       <r>   20.1356    0.0000 </r>
       <r>   20.1990    0.0000 </r>
       <r>   22.6251    0.0000 </r>
       <r>   22.7505    0.0000 </r>
      </set>
      <set comment="kpoint 22">
       <r>    1.1563    1.0000 </r>
       <r>    2.6751    1.0000 </r>
       <r>   10.9333    1.0000 </r>
       <r>   11.3592    1.0000 </r>
       <r>   12.0043    1.0000 </r>
       <r>   12.6991    1.0007 </r>
       <r>   12.8847    1.0187 </r>
       <r>   13.0823    0.9627 </r>
       <r>   17.5774   -0.0000 </r>
       <r>   17.6487   -0.0000 </r>
       <r>   20.5511    0.0000 </r>
       <r>   21.3986    0.0000 </r>
       <r>   22.0455    0.0000 </r>
       <r>   23.1074    0.0000 </r>
      </set>
      <set comment="kpoint 23">
       <r>    1.6213    1.0000 </r>
       <r>    2.1279    1.0000 </r>
       <r>   11.3077    1.0000 </r>
       <r>   11.6842    1.0000 </r>
       <r>   11.7668    1.0000 </r>
       <r>   12.2134    1.0000 </r>
       <r>   12.9646    1.0347 </r>
       <r>   13.0100    1.0309 </r>
       <r>   17.4619   -0.0000 </r>
       <r>   17.4867   -0.0000 </r>
       <r>   21.0085    0.0000 </r>
       <r>   21.5074    0.0000 </r>
       <r>   22.5567    0.0000 </r>
       <r>   23.4695    0.0000 </r>
      </set>
      <set comment="kpoint 24">
       <r>   -0.9332    1.0000 </r>
       <r>    8.3818    1.0000 </r>
       <r>    8.3818    1.0000 </r>
       <r>    9.5607    1.0000 </r>
       <r>   11.4200    1.0000 </r>
       <r>   12.5917    1.0000 </r>
       <r>   12.5917    1.0000 </r>
       <r>   17.0311   -0.0000 </r>
       <r>   17.8505   -0.0000 </r>
       <r>   17.8505   -0.0000 </r>
       <r>   21.1128    0.0000 </r>
       <r>   21.1128    0.0000 </r>
       <r>   21.5824    0.0000 </r>
       <r>   22.4006    0.0000 </r>
      </set>
      <set comment="kpoint 25">
       <r>   -0.8196    1.0000 </r>
       <r>    7.5935    1.0000 </r>
       <r>    8.4806    1.0000 </r>
       <r>    9.6571    1.0000 </r>
       <r>   11.4963    1.0000 </r>
       <r>   12.6705    1.0003 </r>
       <r>   13.5471   -0.0223 </r>
       <r>   16.3964   -0.0000 </r>
       <r>   17.1582   -0.0000 </r>
       <r>   17.9584   -0.0000 </r>
       <r>   20.6908    0.0000 </r>
       <r>   21.2053    0.0000 </r>
       <r>   21.3527    0.0000 </r>
       <r>   22.6231    0.0000 </r>
      </set>
      <set comment="kpoint 26">
       <r>   -0.6608    1.0000 </r>
       <r>    6.8086    1.0000 </r>
       <r>    8.6184    1.0000 </r>
       <r>    9.7921    1.0000 </r>
       <r>   11.5963    1.0000 </r>
       <r>   12.7767    1.0035 </r>
       <r>   14.5651   -0.0000 </r>
       <r>   15.7378   -0.0000 </r>
       <r>   16.4481   -0.0000 </r>
       <r>   18.1083   -0.0000 </r>
       <r>   20.1990    0.0000 </r>
       <r>   20.8761    0.0000 </r>
       <r>   21.3351    0.0000 </r>
       <r>   22.7474    0.0000 </r>
      </set>
      <set comment="kpoint 27">
       <r>   -0.4570    1.0000 </r>
       <r>    6.0463    1.0000 </r>
       <r>    8.7950    1.0000 </r>
       <r>    9.9657    1.0000 </r>
       <r>   11.7105    1.0000 </r>
       <r>   12.9063    1.0236 </r>
       <r>   15.0997   -0.0000 </r>
       <r>   15.6258   -0.0000 </r>
       <r>   15.7524   -0.0000 </r>
       <r>   18.3008   -0.0000 </r>
       <r>   19.6832    0.0000 </r>
       <r>   20.3418    0.0000 </r>
       <r>   21.5034    0.0000 </r>
       <r>   22.9080    0.0000 </r>
      </set>
      <set comment="kpoint 28">
       <r>   -0.2087    1.0000 </r>
       <r>    5.3138    1.0000 </r>
       <r>    9.0096    1.0000 </r>
       <r>   10.1782    1.0000 </r>
       <r>   11.8211    1.0000 </r>
       <r>   13.0520    1.0038 </r>
       <r>   14.5125   -0.0000 </r>
       <r>   15.0830   -0.0000 </r>
       <r>   16.7202   -0.0000 </r>
       <r>   18.5356   -0.0000 </r>
       <r>   19.1773    0.0000 </r>
       <r>   19.8015    0.0000 </r>
       <r>   21.7118    0.0000 </r>
       <r>   23.1047    0.0000 </r>
      </set>
      <set comment="kpoint 29">
       <r>    0.0840    1.0000 </r>
       <r>    4.6150    1.0000 </r>
       <r>    9.2616    1.0000 </r>
       <r>   10.4296    1.0000 </r>
       <r>   11.8932    1.0000 </r>
       <r>   13.2041    0.5836 </r>
       <r>   14.0130   -0.0000 </r>
       <r>   14.4468   -0.0000 </r>
       <r>   17.8412   -0.0000 </r>
       <r>   18.7099    0.0000 </r>
       <r>   18.8129    0.0000 </r>
       <r>   19.2828    0.0000 </r>
       <r>   21.9634    0.0000 </r>
       <r>   23.1449    0.0000 </r>
      </set>
      <set comment="kpoint 30">
       <r>    0.4205    1.0000 </r>
       <r>    3.9522    1.0000 </r>
       <r>    9.5495    1.0000 </r>
       <r>   10.7199    1.0000 </r>
       <r>   11.8662    1.0000 </r>
       <r>   13.3482    0.0707 </r>
       <r>   13.6571   -0.0045 </r>
       <r>   13.8463   -0.0000 </r>
       <r>   18.3069   -0.0000 </r>
       <r>   18.8063    0.0000 </r>
       <r>   18.9809    0.0000 </r>
       <r>   19.1321    0.0000 </r>
       <r>   22.2646    0.0000 </r>
       <r>   22.5056    0.0000 </r>
      </set>
      <set comment="kpoint 31">
       <r>    0.8003    1.0000 </r>
       <r>    3.3270    1.0000 </r>
       <r>    9.8715    1.0000 </r>
       <r>   11.0494    1.0000 </r>
       <r>   11.6840    1.0000 </r>
       <r>   13.2832    0.2611 </r>
       <r>   13.4660   -0.0354 </r>
       <r>   13.4906   -0.0339 </r>
       <r>   17.9958   -0.0000 </r>
       <r>   18.3922   -0.0000 </r>
       <r>   19.4931    0.0000 </r>
       <r>   20.1205    0.0000 </r>
       <r>   21.9066    0.0000 </r>
       <r>   22.6304    0.0000 </r>
      </set>
      <set comment="kpoint 32">
       <r>    1.2228    1.0000 </r>
       <r>    2.7404    1.0000 </r>
       <r>   10.2240    1.0000 </r>
       <r>   11.3687    1.0000 </r>
       <r>   11.4179    1.0000 </r>
       <r>   12.7584    1.0024 </r>
       <r>   13.4755   -0.0353 </r>
       <r>   13.5383   -0.0244 </r>
       <r>   17.8035   -0.0000 </r>
       <r>   18.0621   -0.0000 </r>
       <r>   19.8953    0.0000 </r>
       <r>   21.2213    0.0000 </r>
       <r>   21.3444    0.0000 </r>
       <r>   23.0973    0.0000 </r>
      </set>
      <set comment="kpoint 33">
       <r>    1.6875    1.0000 </r>
       <r>    2.1936    1.0000 </r>
       <r>   10.6011    1.0000 </r>
       <r>   10.9910    1.0000 </r>
       <r>   11.8257    1.0000 </r>
       <r>   12.2725    1.0000 </r>
       <r>   13.5204   -0.0284 </r>
       <r>   13.5537   -0.0208 </r>
       <r>   17.7502   -0.0000 </r>
       <r>   17.8406   -0.0000 </r>
       <r>   20.3385    0.0000 </r>
       <r>   20.8217    0.0000 </r>
       <r>   22.1967    0.0000 </r>
       <r>   22.9589    0.0000 </r>
      </set>
      <set comment="kpoint 34">
       <r>   -0.7061    1.0000 </r>
       <r>    7.6939    1.0000 </r>
       <r>    7.6939    1.0000 </r>
       <r>    9.7535    1.0000 </r>
       <r>   11.5595    1.0000 </r>
       <r>   13.6185   -0.0087 </r>
       <r>   13.6185   -0.0087 </r>
       <r>   15.8003   -0.0000 </r>
       <r>   17.2629   -0.0000 </r>
       <r>   17.2629   -0.0000 </r>
       <r>   20.7931    0.0000 </r>
       <r>   20.7931    0.0000 </r>
       <r>   21.7520    0.0000 </r>
       <r>   23.0076    0.0000 </r>
      </set>
      <set comment="kpoint 35">
       <r>   -0.5476    1.0000 </r>
       <r>    6.9107    1.0000 </r>
       <r>    7.8342    1.0000 </r>
       <r>    9.8886    1.0000 </r>
       <r>   11.6351    1.0000 </r>
       <r>   13.7135   -0.0015 </r>
       <r>   14.6262   -0.0000 </r>
       <r>   15.1861   -0.0000 </r>
       <r>   16.5512   -0.0000 </r>
       <r>   17.4095   -0.0000 </r>
       <r>   20.3144    0.0000 </r>
       <r>   20.9379    0.0000 </r>
       <r>   21.5479    0.0000 </r>
       <r>   23.6301    0.0000 </r>
      </set>
      <set comment="kpoint 36">
       <r>   -0.3441    1.0000 </r>
       <r>    6.1498    1.0000 </r>
       <r>    8.0141    1.0000 </r>
       <r>   10.0625    1.0000 </r>
       <r>   11.7041    1.0000 </r>
       <r>   13.8264   -0.0001 </r>
       <r>   14.6099   -0.0000 </r>
       <r>   15.6721   -0.0000 </r>
       <r>   15.8544   -0.0000 </r>
       <r>   17.5978   -0.0000 </r>
       <r>   19.8162    0.0000 </r>
       <r>   21.0706    0.0000 </r>
       <r>   21.1274    0.0000 </r>
       <r>   23.7650    0.0000 </r>
      </set>
      <set comment="kpoint 37">
       <r>   -0.0960    1.0000 </r>
       <r>    5.4187    1.0000 </r>
       <r>    8.2326    1.0000 </r>
       <r>   10.2751    1.0000 </r>
       <r>   11.7303    1.0000 </r>
       <r>   13.9475   -0.0000 </r>
       <r>   14.1240   -0.0000 </r>
       <r>   15.1842   -0.0000 </r>
       <r>   16.7448   -0.0000 </r>
       <r>   17.8285   -0.0000 </r>
       <r>   19.3344    0.0000 </r>
       <r>   20.5402    0.0000 </r>
       <r>   21.3660    0.0000 </r>
       <r>   23.0249    0.0000 </r>
      </set>
      <set comment="kpoint 38">
       <r>    0.1962    1.0000 </r>
       <r>    4.7210    1.0000 </r>
       <r>    8.4892    1.0000 </r>
       <r>   10.5267    1.0000 </r>
       <r>   11.6565    1.0000 </r>
       <r>   13.7903   -0.0002 </r>
       <r>   14.0637   -0.0000 </r>
       <r>   14.5473   -0.0000 </r>
       <r>   17.8327   -0.0000 </r>
       <r>   18.0998   -0.0000 </r>
       <r>   18.9010    0.0000 </r>
       <r>   20.0138    0.0000 </r>
       <r>   21.6610    0.0000 </r>
       <r>   22.3611    0.0000 </r>
      </set>
      <set comment="kpoint 39">
       <r>    0.5323    1.0000 </r>
       <r>    4.0592    1.0000 </r>
       <r>    8.7827    1.0000 </r>
       <r>   10.8172    1.0000 </r>
       <r>   11.4384    1.0000 </r>
       <r>   13.6518   -0.0050 </r>
       <r>   13.9463   -0.0000 </r>
       <r>   14.1559   -0.0000 </r>
       <r>   18.4124   -0.0000 </r>
       <r>   18.5468   -0.0000 </r>
       <r>   18.9178    0.0000 </r>
       <r>   19.5177    0.0000 </r>
       <r>   21.7320    0.0000 </r>
       <r>   22.0276    0.0000 </r>
      </set>
      <set comment="kpoint 40">
       <r>    0.9116    1.0000 </r>
       <r>    3.4349    1.0000 </r>
       <r>    9.1114    1.0000 </r>
       <r>   11.0976    1.0000 </r>
       <r>   11.1469    1.0000 </r>
       <r>   13.3827    0.0116 </r>
       <r>   13.6803   -0.0029 </r>
       <r>   14.2020   -0.0000 </r>
       <r>   18.3024   -0.0000 </r>
       <r>   18.7663    0.0000 </r>
[...]
       <r>    5.0414    1.0000 </r>
       <r>    6.4184    1.0000 </r>
       <r>    6.4184    1.0000 </r>
       <r>    7.0847    1.0000 </r>
       <r>    8.5410    1.0000 </r>
       <r>    9.1983    1.0000 </r>
       <r>    9.1983    1.0000 </r>
       <r>   10.5401    1.0000 </r>
       <r>   24.2842    0.0000 </r>
       <r>   24.8426    0.0000 </r>
       <r>   24.8426    0.0000 </r>
       <r>   25.9751    0.0000 </r>
       <r>   25.9752    0.0000 </r>
       <r>   26.0364    0.0000 </r>
      </set>
      <set comment="kpoint 359">
       <r>    5.4734    1.0000 </r>
       <r>    5.9360    1.0000 </r>
       <r>    6.7722    1.0000 </r>
       <r>    7.0447    1.0000 </r>
       <r>    8.4992    1.0000 </r>
       <r>    8.7686    1.0000 </r>
       <r>    9.5898    1.0000 </r>
       <r>   10.0405    1.0000 </r>
       <r>   24.6100    0.0000 </r>
       <r>   24.8148    0.0000 </r>
       <r>   25.6506    0.0000 </r>
       <r>   26.1295    0.0000 </r>
       <r>   26.1833    0.0000 </r>
       <r>   26.2282    0.0000 </r>
      </set>
      <set comment="kpoint 360">
       <r>    5.8944    1.0000 </r>
       <r>    6.3362    1.0000 </r>
       <r>    6.3362    1.0000 </r>
       <r>    6.7315    1.0000 </r>
       <r>    8.7272    1.0000 </r>
       <r>    9.1165    1.0000 </r>
       <r>    9.1165    1.0000 </r>
       <r>    9.5493    1.0000 </r>
       <r>   25.0593    0.0000 </r>
       <r>   25.4049    0.0000 </r>
       <r>   25.4049    0.0000 </r>
       <r>   25.8401    0.0000 </r>
       <r>   26.6033    0.0000 </r>
       <r>   26.6813    0.0000 </r>
      </set>
      <set comment="kpoint 361">
       <r>    5.4316    1.0000 </r>
       <r>    6.7316    1.0000 </r>
       <r>    6.7316    1.0000 </r>
       <r>    6.7316    1.0000 </r>
       <r>    8.7274    1.0000 </r>
       <r>    8.7274    1.0000 </r>
       <r>    8.7274    1.0000 </r>
       <r>   10.0006    1.0000 </r>
       <r>   25.3269    0.0000 </r>
       <r>   25.3269    0.0000 </r>
       <r>   25.3270    0.0000 </r>
       <r>   26.2832    0.0000 </r>
       <r>   26.2837    0.0000 </r>
       <r>   26.2975    0.0000 </r>
      </set>
      <set comment="kpoint 362">
       <r>    5.8529    1.0000 </r>
       <r>    6.2951    1.0000 </r>
       <r>    6.9646    1.0000 </r>
       <r>    6.9646    1.0000 </r>
       <r>    8.4153    1.0000 </r>
       <r>    8.4153    1.0000 </r>
       <r>    9.0757    1.0000 </r>
       <r>    9.5090    1.0000 </r>
       <r>   25.5562    0.0000 </r>
       <r>   25.5564    0.0000 </r>
       <r>   26.2602    0.0000 </r>
       <r>   26.4612    0.0000 </r>
       <r>   26.4846    0.0000 </r>
       <r>   26.5777    0.0000 </r>
      </set>
      <set comment="kpoint 363">
       <r>    6.2539    1.0000 </r>
       <r>    6.6503    1.0000 </r>
       <r>    6.6503    1.0000 </r>
       <r>    6.9245    1.0000 </r>
       <r>    8.3733    1.0000 </r>
       <r>    8.6443    1.0000 </r>
       <r>    8.6443    1.0000 </r>
       <r>    9.0347    1.0000 </r>
       <r>   26.0227    0.0000 </r>
       <r>   26.2595    0.0000 </r>
       <r>   26.2601    0.0000 </r>
       <r>   26.6419    0.0000 </r>
       <r>   26.7710    0.0000 </r>
       <r>   26.8042    0.0000 </r>
      </set>
      <set comment="kpoint 364">
       <r>    6.6096    1.0000 </r>
       <r>    6.8846    1.0000 </r>
       <r>    6.8846    1.0000 </r>
       <r>    6.8846    1.0000 </r>
       <r>    8.3312    1.0000 </r>
       <r>    8.3312    1.0000 </r>
       <r>    8.3312    1.0000 </r>
       <r>    8.6028    1.0000 </r>
       <r>   26.7599    0.0000 </r>
       <r>   26.7605    0.0000 </r>
       <r>   26.7640    0.0000 </r>
       <r>   26.9104    0.0000 </r>
       <r>   26.9112    0.0000 </r>
       <r>   26.9138    0.0000 </r>
      </set>
     </set>
    </set>
   </array>
  </eigenvalues>
  <separator name="orbital magnetization" >
   <v name="MAGDIPOLOUT">      0.00000000      0.00000000      0.00000000</v>
  </separator>
  <dos>
   <i name="efermi">     13.22395134 </i>
   <total>
    <array>
     <dimension dim="1">gridpoints</dimension>
     <dimension dim="2">spin</dimension>
     <field>energy</field>
     <field>total</field>
     <field>integrated</field>
     <set>
      <set comment="spin 1">
       <r>    -3.1153     0.0000     0.0000 </r>
       <r>    -3.0085     0.0000     0.0000 </r>
       <r>    -2.9018     0.0000     0.0000 </r>
       <r>    -2.7950    -0.0000    -0.0000 </r>
       <r>    -2.6882    -0.0000    -0.0000 </r>
       <r>    -2.5815    -0.0000    -0.0000 </r>
       <r>    -2.4747    -0.0000    -0.0000 </r>
       <r>    -2.3680    -0.0000    -0.0000 </r>
       <r>    -2.2612    -0.0000    -0.0000 </r>
       <r>    -2.1544    -0.0000    -0.0000 </r>
       <r>    -2.0477    -0.0000    -0.0000 </r>
       <r>    -1.9409    -0.0000    -0.0000 </r>
       <r>    -1.8341    -0.0000    -0.0000 </r>
       <r>    -1.7274    -0.0000    -0.0000 </r>
       <r>    -1.6206    -0.0000    -0.0000 </r>
       <r>    -1.5138    -0.0002    -0.0000 </r>
       <r>    -1.4071    -0.0013    -0.0002 </r>
       <r>    -1.3003    -0.0033    -0.0005 </r>
       <r>    -1.1936     0.0006    -0.0005 </r>
       <r>    -1.0868     0.0260     0.0023 </r>
       <r>    -0.9800     0.0748     0.0103 </r>
       <r>    -0.8733     0.1258     0.0237 </r>
       <r>    -0.7665     0.1639     0.0412 </r>
       <r>    -0.6597     0.1919     0.0617 </r>
       <r>    -0.5530     0.2161     0.0848 </r>
       <r>    -0.4462     0.2380     0.1102 </r>
       <r>    -0.3394     0.2571     0.1377 </r>
       <r>    -0.2327     0.2781     0.1674 </r>
       <r>    -0.1259     0.2943     0.1988 </r>
       <r>    -0.0192     0.3087     0.2317 </r>
       <r>     0.0876     0.3314     0.2671 </r>
       <r>     0.1944     0.3426     0.3037 </r>
       <r>     0.3011     0.3518     0.3412 </r>
       <r>     0.4079     0.3759     0.3814 </r>
       <r>     0.5147     0.3913     0.4231 </r>
       <r>     0.6214     0.3926     0.4651 </r>
       <r>     0.7282     0.4050     0.5083 </r>
       <r>     0.8350     0.4370     0.5550 </r>
       <r>     0.9417     0.4450     0.6025 </r>
       <r>     1.0485     0.4317     0.6486 </r>
       <r>     1.1552     0.4576     0.6974 </r>
       <r>     1.2620     0.4909     0.7498 </r>
       <r>     1.3688     0.4894     0.8021 </r>
       <r>     1.4755     0.4847     0.8538 </r>
       <r>     1.5823     0.4963     0.9068 </r>
       <r>     1.6891     0.5214     0.9625 </r>
       <r>     1.7958     0.5485     1.0210 </r>
       <r>     1.9026     0.5487     1.0796 </r>
       <r>     2.0094     0.5240     1.1356 </r>
       <r>     2.1161     0.5375     1.1929 </r>
       <r>     2.2229     0.5995     1.2570 </r>
       <r>     2.3296     0.6110     1.3222 </r>
       <r>     2.4364     0.5719     1.3832 </r>
       <r>     2.5432     0.5746     1.4446 </r>
       <r>     2.6499     0.6119     1.5099 </r>
       <r>     2.7567     0.6318     1.5774 </r>
       <r>     2.8635     0.6394     1.6456 </r>
       <r>     2.9702     0.6567     1.7158 </r>
       <r>     3.0770     0.6429     1.7844 </r>
       <r>     3.1838     0.6214     1.8507 </r>
       <r>     3.2905     0.6540     1.9206 </r>
       <r>     3.3973     0.7076     1.9961 </r>
       <r>     3.5041     0.7316     2.0742 </r>
       <r>     3.6108     0.6932     2.1482 </r>
       <r>     3.7176     0.6526     2.2179 </r>
       <r>     3.8243     0.6850     2.2910 </r>
       <r>     3.9311     0.7516     2.3713 </r>
       <r>     4.0379     0.7749     2.4540 </r>
       <r>     4.1446     0.7389     2.5329 </r>
       <r>     4.2514     0.7309     2.6109 </r>
       <r>     4.3582     0.7660     2.6927 </r>
       <r>     4.4649     0.7568     2.7735 </r>
       <r>     4.5717     0.7426     2.8528 </r>
       <r>     4.6785     0.7926     2.9374 </r>
       <r>     4.7852     0.8490     3.0281 </r>
       <r>     4.8920     0.8408     3.1178 </r>
       <r>     4.9987     0.7914     3.2023 </r>
       <r>     5.1055     0.7615     3.2836 </r>
       <r>     5.2123     0.7930     3.3683 </r>
       <r>     5.3190     0.8779     3.4620 </r>
       <r>     5.4258     0.9138     3.5596 </r>
       <r>     5.5326     0.8766     3.6532 </r>
       <r>     5.6393     0.8479     3.7437 </r>
       <r>     5.7461     0.8442     3.8338 </r>
       <r>     5.8529     0.8650     3.9262 </r>
       <r>     5.9596     0.9190     4.0243 </r>
       <r>     6.0664     0.9288     4.1235 </r>
       <r>     6.1731     0.9004     4.2196 </r>
       <r>     6.2799     0.9562     4.3217 </r>
       <r>     6.3867     1.0020     4.4287 </r>
       <r>     6.4934     0.9508     4.5302 </r>
       <r>     6.6002     0.9160     4.6280 </r>
       <r>     6.7070     0.9396     4.7283 </r>
       <r>     6.8137     1.0181     4.8370 </r>
       <r>     6.9205     1.1303     4.9577 </r>
       <r>     7.0273     1.1659     5.0821 </r>
       <r>     7.1340     1.0826     5.1977 </r>
       <r>     7.2408     0.9954     5.3040 </r>
       <r>     7.3475     0.9893     5.4096 </r>
       <r>     7.4543     1.0228     5.5188 </r>
       <r>     7.5611     1.0352     5.6293 </r>
       <r>     7.6678     1.0276     5.7390 </r>
       <r>     7.7746     0.9943     5.8452 </r>
       <r>     7.8814     0.9237     5.9438 </r>
       <r>     7.9881     0.9121     6.0412 </r>
       <r>     8.0949     0.9543     6.1431 </r>
       <r>     8.2017     0.9115     6.2404 </r>
       <r>     8.3084     0.8353     6.3296 </r>
       <r>     8.4152     0.8788     6.4234 </r>
       <r>     8.5219     1.0201     6.5323 </r>
       <r>     8.6287     1.1051     6.6503 </r>
       <r>     8.7355     1.0574     6.7632 </r>
       <r>     8.8422     0.9622     6.8659 </r>
       <r>     8.9490     0.9190     6.9640 </r>
       <r>     9.0558     1.0238     7.0733 </r>
       <r>     9.1625     1.2094     7.2024 </r>
       <r>     9.2693     1.2011     7.3307 </r>
       <r>     9.3761     1.0558     7.4434 </r>
       <r>     9.4828     1.0616     7.5567 </r>
       <r>     9.5896     1.1962     7.6844 </r>
       <r>     9.6964     1.2491     7.8178 </r>
       <r>     9.8031     1.1853     7.9443 </r>
       <r>     9.9099     1.1011     8.0619 </r>
       <r>    10.0166     1.0702     8.1762 </r>
       <r>    10.1234     1.1105     8.2947 </r>
       <r>    10.2302     1.1647     8.4191 </r>
       <r>    10.3369     1.1327     8.5400 </r>
       <r>    10.4437     1.0462     8.6517 </r>
       <r>    10.5505     1.0427     8.7630 </r>
       <r>    10.6572     1.0698     8.8772 </r>
       <r>    10.7640     1.0554     8.9899 </r>
       <r>    10.8708     1.0629     9.1034 </r>
       <r>    10.9775     1.1241     9.2234 </r>
       <r>    11.0843     1.1995     9.3515 </r>
       <r>    11.1910     1.2203     9.4818 </r>
       <r>    11.2978     1.2227     9.6123 </r>
       <r>    11.4046     1.2773     9.7487 </r>
       <r>    11.5113     1.2916     9.8866 </r>
       <r>    11.6181     1.2954    10.0249 </r>
       <r>    11.7249     1.4023    10.1746 </r>
       <r>    11.8316     1.4863    10.3333 </r>
       <r>    11.9384     1.4729    10.4905 </r>
       <r>    12.0452     1.4290    10.6431 </r>
       <r>    12.1519     1.3641    10.7887 </r>
       <r>    12.2587     1.2682    10.9241 </r>
       <r>    12.3654     1.1667    11.0487 </r>
       <r>    12.4722     1.0959    11.1657 </r>
       <r>    12.5790     1.1082    11.2840 </r>
       <r>    12.6857     1.1934    11.4114 </r>
       <r>    12.7925     1.2495    11.5448 </r>
       <r>    12.8993     1.2051    11.6735 </r>
       <r>    13.0060     1.1043    11.7914 </r>
       <r>    13.1128     1.0117    11.8994 </r>
       <r>    13.2196     0.9069    11.9962 </r>
       <r>    13.3263     0.8733    12.0894 </r>
       <r>    13.4331     0.9788    12.1939 </r>
       <r>    13.5398     1.1133    12.3128 </r>
       <r>    13.6466     1.2580    12.4471 </r>
       <r>    13.7534     1.4199    12.5987 </r>
       <r>    13.8601     1.4638    12.7550 </r>
       <r>    13.9669     1.3554    12.8997 </r>
       <r>    14.0737     1.2353    13.0316 </r>
       <r>    14.1804     1.1960    13.1593 </r>
       <r>    14.2872     1.2412    13.2918 </r>
       <r>    14.3940     1.3725    13.4383 </r>
       <r>    14.5007     1.4754    13.5958 </r>
       <r>    14.6075     1.4859    13.7545 </r>
       <r>    14.7142     1.4467    13.9089 </r>
       <r>    14.8210     1.3556    14.0536 </r>
       <r>    14.9278     1.2923    14.1916 </r>
       <r>    15.0345     1.3207    14.3326 </r>
       <r>    15.1413     1.3071    14.4722 </r>
       <r>    15.2481     1.2540    14.6061 </r>
       <r>    15.3548     1.2767    14.7424 </r>
       <r>    15.4616     1.2718    14.8782 </r>
       <r>    15.5684     1.2991    15.0169 </r>
       <r>    15.6751     1.4442    15.1710 </r>
       <r>    15.7819     1.4503    15.3259 </r>
       <r>    15.8886     1.3205    15.4669 </r>
       <r>    15.9954     1.2984    15.6055 </r>
       <r>    16.1022     1.2659    15.7406 </r>
       <r>    16.2089     1.1156    15.8597 </r>
       <r>    16.3157     1.1014    15.9773 </r>
       <r>    16.4225     1.2516    16.1110 </r>
       <r>    16.5292     1.2831    16.2479 </r>
       <r>    16.6360     1.2753    16.3841 </r>
       <r>    16.7428     1.3707    16.5304 </r>
       <r>    16.8495     1.3908    16.6789 </r>
       <r>    16.9563     1.2225    16.8094 </r>
       <r>    17.0631     1.0647    16.9231 </r>
       <r>    17.1698     1.0631    17.0366 </r>
       <r>    17.2766     1.1102    17.1551 </r>
       <r>    17.3833     1.1831    17.2814 </r>
       <r>    17.4901     1.2986    17.4201 </r>
       <r>    17.5969     1.3294    17.5620 </r>
       <r>    17.7036     1.2450    17.6949 </r>
       <r>    17.8104     1.2377    17.8271 </r>
       <r>    17.9172     1.3230    17.9683 </r>
       <r>    18.0239     1.3808    18.1158 </r>
       <r>    18.1307     1.3604    18.2610 </r>
       <r>    18.2375     1.2838    18.3981 </r>
       <r>    18.3442     1.2576    18.5323 </r>
       <r>    18.4510     1.3108    18.6723 </r>
       <r>    18.5577     1.3278    18.8140 </r>
       <r>    18.6645     1.3286    18.9559 </r>
       <r>    18.7713     1.4178    19.1072 </r>
       <r>    18.8780     1.4891    19.2662 </r>
       <r>    18.9848     1.3790    19.4134 </r>
       <r>    19.0916     1.1959    19.5411 </r>
       <r>    19.1983     1.2082    19.6701 </r>
       <r>    19.3051     1.4297    19.8228 </r>
       <r>    19.4119     1.5898    19.9925 </r>
       <r>    19.5186     1.5324    20.1561 </r>
       <r>    19.6254     1.3317    20.2983 </r>
       <r>    19.7321     1.2130    20.4278 </r>
       <r>    19.8389     1.3151    20.5682 </r>
       <r>    19.9457     1.4548    20.7235 </r>
       <r>    20.0524     1.5240    20.8862 </r>
       <r>    20.1592     1.5252    21.0491 </r>
       <r>    20.2660     1.5056    21.2098 </r>
       <r>    20.3727     1.5513    21.3754 </r>
       <r>    20.4795     1.5502    21.5409 </r>
       <r>    20.5863     1.4461    21.6953 </r>
       <r>    20.6930     1.4364    21.8487 </r>
       <r>    20.7998     1.5733    22.0166 </r>
       <r>    20.9065     1.7025    22.1984 </r>
       <r>    21.0133     1.6934    22.3792 </r>
       <r>    21.1201     1.5791    22.5478 </r>
       <r>    21.2268     1.5696    22.7154 </r>
       <r>    21.3336     1.7394    22.9011 </r>
       <r>    21.4404     1.9082    23.1048 </r>
       <r>    21.5471     1.9309    23.3110 </r>
       <r>    21.6539     1.8818    23.5119 </r>
       <r>    21.7607     1.8878    23.7134 </r>
       <r>    21.8674     1.8960    23.9158 </r>
       <r>    21.9742     1.8176    24.1099 </r>
       <r>    22.0809     1.7812    24.3001 </r>
       <r>    22.1877     1.8196    24.4943 </r>
       <r>    22.2945     1.7907    24.6855 </r>
       <r>    22.4012     1.7093    24.8680 </r>
       <r>    22.5080     1.6459    25.0437 </r>
       <r>    22.6148     1.6697    25.2220 </r>
       <r>    22.7215     1.7887    25.4130 </r>
       <r>    22.8283     1.7690    25.6018 </r>
       <r>    22.9351     1.5464    25.7669 </r>
       <r>    23.0418     1.3716    25.9133 </r>
       <r>    23.1486     1.3232    26.0546 </r>
       <r>    23.2554     1.3168    26.1952 </r>
       <r>    23.3621     1.2812    26.3320 </r>
       <r>    23.4689     1.1966    26.4597 </r>
       <r>    23.5756     1.0842    26.5755 </r>
       <r>    23.6824     0.9599    26.6780 </r>
       <r>    23.7892     0.8549    26.7692 </r>
       <r>    23.8959     0.7383    26.8481 </r>
       <r>    24.0027     0.6852    26.9212 </r>
       <r>    24.1095     0.7634    27.0027 </r>
       <r>    24.2162     0.7958    27.0877 </r>
       <r>    24.3230     0.6676    27.1590 </r>
       <r>    24.4298     0.5156    27.2140 </r>
       <r>    24.5365     0.5109    27.2686 </r>
       <r>    24.6433     0.5976    27.3324 </r>
       <r>    24.7500     0.6178    27.3983 </r>
       <r>    24.8568     0.5452    27.4565 </r>
       <r>    24.9636     0.4890    27.5087 </r>
       <r>    25.0703     0.5118    27.5634 </r>
       <r>    25.1771     0.5136    27.6182 </r>
       <r>    25.2839     0.4267    27.6638 </r>
       <r>    25.3906     0.3231    27.6983 </r>
       <r>    25.4974     0.2841    27.7286 </r>
       <r>    25.6042     0.3331    27.7642 </r>
       <r>    25.7109     0.3727    27.8040 </r>
       <r>    25.8177     0.3094    27.8370 </r>
       <r>    25.9244     0.2337    27.8619 </r>
       <r>    26.0312     0.2118    27.8846 </r>
       <r>    26.1380     0.2140    27.9074 </r>
       <r>    26.2447     0.2109    27.9299 </r>
       <r>    26.3515     0.1683    27.9479 </r>
       <r>    26.4583     0.1138    27.9600 </r>
       <r>    26.5650     0.0968    27.9704 </r>
       <r>    26.6718     0.0977    27.9808 </r>
       <r>    26.7786     0.0880    27.9902 </r>
       <r>    26.8853     0.0620    27.9968 </r>
       <r>    26.9921     0.0283    27.9998 </r>
       <r>    27.0988     0.0051    28.0004 </r>
       <r>    27.2056    -0.0019    28.0002 </r>
       <r>    27.3124    -0.0013    28.0000 </r>
       <r>    27.4191    -0.0003    28.0000 </r>
       <r>    27.5259    -0.0000    28.0000 </r>
       <r>    27.6327    -0.0000    28.0000 </r>
       <r>    27.7394    -0.0000    28.0000 </r>
       <r>    27.8462    -0.0000    28.0000 </r>
       <r>    27.9530    -0.0000    28.0000 </r>
       <r>    28.0597    -0.0000    28.0000 </r>
       <r>    28.1665    -0.0000    28.0000 </r>
       <r>    28.2732     0.0000    28.0000 </r>
       <r>    28.3800     0.0000    28.0000 </r>
       <r>    28.4868     0.0000    28.0000 </r>
       <r>    28.5935     0.0000    28.0000 </r>
       <r>    28.7003     0.0000    28.0000 </r>
       <r>    28.8071     0.0000    28.0000 </r>
       <r>    28.9138     0.0000    28.0000 </r>
      </set>
     </set>
    </array>
   </total>
  </dos>
 </calculation>
 <structure name="finalpos" >
  <crystal>
   <varray name="basis" >
    <v>       3.49867884       0.00000000       0.00000000 </v>
    <v>      -0.00000000       3.49867884       0.00000000 </v>
    <v>       0.00000000       0.00000000       3.49867884 </v>
   </varray>
   <i name="volume">     42.82646584 </i>
   <varray name="rec_basis" >
    <v>       0.28582218       0.00000000      -0.00000000 </v>
    <v>       0.00000000       0.28582218       0.00000000 </v>
    <v>      -0.00000000      -0.00000000       0.28582218 </v>
   </varray>
  </crystal>
  <varray name="positions" >
   <v>       0.00000000       0.00000000       0.00000000 </v>
   <v>       0.00000000       0.50000000       0.50000000 </v>
   <v>       0.50000000       0.00000000       0.50000000 </v>
   <v>       0.50000000       0.50000000       0.00000000 </v>
  </varray>
 </structure>
</modeling>
