ITEM: TIMESTEP
0
ITEM: NUMBER OF ATOMS
4
ITEM: BOX BOUNDS xy xz yz pp pp pp
-4.0499988899999999e-02 4.0499988870000001e+00 -4.0499988899999999e-02
0.0000000000000000e+00 4.0497963820000002e+00 0.0000000000000000e+00
0.0000000000000000e+00 4.0499988870000001e+00 0.0000000000000000e+00
ITEM: ATOMS id type xs ys zs fx fy fz
1 1 0 0 0 1.65271e-10 1.71896e-11 -3.04122e-16
4 1 0.5 0 0.5 1.65268e-10 1.71883e-11 3.78471e-16
3 1 0.5 0.5 0 -1.65271e-10 -1.71897e-11 -7.78339e-16
2 1 1.23457e-11 0.5 0.5 -1.65267e-10 -1.71882e-11 7.03989e-16
ITEM: TIMESTEP
2
ITEM: NUMBER OF ATOMS
4
ITEM: BOX BOUNDS xy xz yz pp pp pp
-4.0499988899999999e-02 4.0499988870000001e+00 -4.0499988899999999e-02
0.0000000000000000e+00 4.0497963820000002e+00 0.0000000000000000e+00
0.0000000000000000e+00 4.0499988870000001e+00 0.0000000000000000e+00
ITEM: ATOMS id type xs ys zs fx fy fz
1 1 6.17292e-12 0 0 -3.16587e-15 -5.77663e-16 2.01035e-16
4 1 0.5 0 0.5 -2.6628e-15 -2.46157e-15 -7.24606e-16
3 1 0.5 0.5 0 2.42341e-15 8.43076e-16 -7.00645e-16
2 1 6.17262e-12 0.5 0.5 3.40006e-15 2.19616e-15 1.2242e-15
