
4 atoms
1 atom types
   0.0000000000    4.1672487066 xlo xhi
   0.0000000000    4.1672487066 ylo yhi
   0.0000000000    4.1672487066 zlo zhi
  -0.0000000000   -0.0000000000   -0.0000000000 xy xz yz

Atoms # atomic

     1      1    0.0000000000    0.0000000000    0.0000000000
     2      1    0.0000000000    2.0836243533    2.0836243533
     3      1    2.0836243533    2.0836243533    0.0000000000
     4      1    2.0836243533    0.0000000000    2.0836243533
