ITEM: TIMESTEP
0
ITEM: NUMBER OF ATOMS
4
ITEM: BOX BOUNDS xy xz yz pp pp pp
0.0000000000000000e+00 4.1672487065999997e+00 -0.0000000000000000e+00
0.0000000000000000e+00 4.1672487065999997e+00 -0.0000000000000000e+00
0.0000000000000000e+00 4.1672487065999997e+00 -0.0000000000000000e+00
ITEM: ATOMS id type xs ys zs fx fy fz
1 1 0 0 0 4.16334e-17 1.38744e-17 2.48582e-17
4 1 0.5 0 0.5 -2.77556e-17 2.42827e-17 -9.49695e-17
3 1 0.5 0.5 0 -3.46945e-17 -5.22535e-17 1.23833e-16
2 1 0 0.5 0.5 4.16334e-17 -4.65699e-18 -8.30645e-17
ITEM: TIMESTEP
1
ITEM: NUMBER OF ATOMS
4
ITEM: BOX BOUNDS xy xz yz pp pp pp
0.0000000000000000e+00 4.1672487065999997e+00 -0.0000000000000000e+00
0.0000000000000000e+00 4.1672487065999997e+00 -0.0000000000000000e+00
0.0000000000000000e+00 4.1672487065999997e+00 -0.0000000000000000e+00
ITEM: ATOMS id type xs ys zs fx fy fz
1 1 0 0 0 4.16334e-17 1.38744e-17 2.48582e-17
4 1 0.5 0 0.5 -2.77556e-17 2.42827e-17 -9.49695e-17
3 1 0.5 0.5 0 -3.46945e-17 -5.22535e-17 1.23833e-16
2 1 0 0.5 0.5 4.16334e-17 -4.65699e-18 -8.30645e-17
