ITEM: TIMESTEP
0
ITEM: NUMBER OF ATOMS
4
ITEM: BOX BOUNDS xy xz yz pp pp pp
0.0000000000000000e+00 4.0369359481000000e+00 0.0000000000000000e+00
0.0000000000000000e+00 4.0570704169000003e+00 0.0000000000000000e+00
0.0000000000000000e+00 4.0369359481000000e+00 0.0000000000000000e+00
ITEM: ATOMS id type xs ys zs fx fy fz
1 1 0 0 0 2.33637e-10 2.31077e-10 2.33637e-10
4 1 0.5 0 0.5 -2.33637e-10 2.31077e-10 -2.33637e-10
3 1 0.5 0.5 0 -2.33637e-10 -2.31077e-10 2.33637e-10
2 1 0 0.5 0.5 2.33637e-10 -2.31077e-10 -2.33637e-10
ITEM: TIMESTEP
1
ITEM: NUMBER OF ATOMS
4
ITEM: BOX BOUNDS xy xz yz pp pp pp
0.0000000000000000e+00 4.0369359481000000e+00 0.0000000000000000e+00
0.0000000000000000e+00 4.0570704169000003e+00 0.0000000000000000e+00
0.0000000000000000e+00 4.0369359481000000e+00 0.0000000000000000e+00
ITEM: ATOMS id type xs ys zs fx fy fz
1 1 6.21519e-12 6.11657e-12 6.21519e-12 -8.41952e-13 1.71068e-12 -8.42125e-13
4 1 0.5 6.11657e-12 0.5 8.42187e-13 1.71057e-12 8.42182e-13
3 1 0.5 0.5 6.21519e-12 8.41854e-13 -1.71069e-12 -8.42149e-13
2 1 6.21519e-12 0.5 0.5 -8.42104e-13 -1.71065e-12 8.42019e-13
