ITEM: TIMESTEP
0
ITEM: NUMBER OF ATOMS
4
ITEM: BOX BOUNDS xy xz yz pp pp pp
0.0000000000000000e+00 3.5082674125000000e+00 0.0000000000000000e+00
0.0000000000000000e+00 3.5082674125000000e+00 0.0000000000000000e+00
0.0000000000000000e+00 3.5082674125000000e+00 0.0000000000000000e+00
ITEM: ATOMS id type xs ys zs fx fy fz
1 1 0 0 0 2.90748e-09 2.90748e-09 2.90748e-09
4 1 0.5 0 0.5 -2.90748e-09 2.90748e-09 -2.90748e-09
3 1 0.5 0.5 0 -2.90748e-09 -2.90748e-09 2.90748e-09
2 1 0 0.5 0.5 2.90748e-09 -2.90748e-09 -2.90748e-09
ITEM: TIMESTEP
1
ITEM: NUMBER OF ATOMS
4
ITEM: BOX BOUNDS xy xz yz pp pp pp
0.0000000000000000e+00 3.5082674125000000e+00 0.0000000000000000e+00
0.0000000000000000e+00 3.5082674125000000e+00 0.0000000000000000e+00
0.0000000000000000e+00 3.5082674125000000e+00 0.0000000000000000e+00
ITEM: ATOMS id type xs ys zs fx fy fz
1 1 7.12604e-12 7.12604e-12 7.12604e-12 -8.88178e-15 -7.88258e-15 -8.65974e-15
4 1 0.5 7.12604e-12 0.5 8.21565e-15 -8.32667e-15 8.88178e-15
3 1 0.5 0.5 7.12603e-12 8.99281e-15 7.93482e-15 -8.32667e-15
2 1 7.12604e-12 0.5 0.5 -8.43769e-15 7.54952e-15 8.65974e-15
