ITEM: TIMESTEP
0
ITEM: NUMBER OF ATOMS
4
ITEM: BOX BOUNDS xy xz yz pp pp pp
0.0000000000000000e+00 4.0369359481000000e+00 0.0000000000000000e+00
-8.0738719000000000e-02 4.0369359481000000e+00 0.0000000000000000e+00
0.0000000000000000e+00 4.0361284802000004e+00 -8.0738719000000000e-02
ITEM: ATOMS id type xs ys zs fx fy fz
1 1 0 0 0 2.36786e-10 2.37119e-10 1.74501e-11
2 1 0 0.5 0.5 2.36786e-10 -2.37119e-10 -1.745e-11
3 1 0.5 0.5 0 -2.36786e-10 -2.37119e-10 -1.74503e-11
4 1 0.5 5.20417e-18 0.5 -2.36786e-10 2.37119e-10 1.74503e-11
ITEM: TIMESTEP
1
ITEM: NUMBER OF ATOMS
4
ITEM: BOX BOUNDS xy xz yz pp pp pp
0.0000000000000000e+00 4.0369359481000000e+00 0.0000000000000000e+00
-8.0738719000000000e-02 4.0369359481000000e+00 0.0000000000000000e+00
0.0000000000000000e+00 4.0361284802000004e+00 -8.0738719000000000e-02
ITEM: ATOMS id type xs ys zs fx fy fz
1 1 6.16478e-12 6.18254e-12 4.54407e-13 1.07196e-12 -5.38591e-13 -7.26426e-12
2 1 6.16478e-12 0.5 0.5 1.07225e-12 5.38814e-13 7.26417e-12
4 1 0.5 6.18255e-12 0.5 -1.072e-12 -5.38772e-13 -7.26513e-12
3 1 0.5 0.5 1 -1.07224e-12 5.38507e-13 7.26517e-12
