
16 atoms
1 atom types
   0.0000000000    2.8545447841 xlo xhi
   0.0000000000    8.5636343524 ylo yhi
   0.0000000000   24.2216156886 zlo zhi
  -0.0000000000    0.0100000000    0.0000000000 xy xz yz

Atoms # atomic

     1      1    2.4986989083    0.8325755620    2.3548793030
     2      1    2.4981433527    4.6386352742    1.0092339870
     3      1    1.0711487384    7.0174225942    1.6820566450
     4      1    1.0705931829    2.2598479540    0.3364113290
     5      1    2.4998100194    1.7840904901    5.0461699351
     6      1    2.4992544638    5.5901502022    3.7005246191
     7      1    1.0722598495    7.9689375223    4.3733472771
     8      1    1.0717042940    3.2113628821    3.0277019611
     9      1    2.5009211305    2.7356054181    7.7374605672
    10      1    2.5003655749    6.5416651303    6.3918152511
    11      1    1.0733709607    0.3568180980    7.0646379092
    12      1    1.0728154051    4.1628778101    5.7189925931
    13      1    2.5020322416    3.6871203461   10.4287511993
    14      1    2.5014766860    7.4931800583    9.0831058832
    15      1    1.0744820718    1.3083330260    9.7559285412
    16      1    1.0739265162    5.1143927382    8.4102832252
