ITEM: TIMESTEP
0
ITEM: NUMBER OF ATOMS
16
ITEM: BOX BOUNDS xy xz yz pp pp pp
0.0000000000000000e+00 2.8645447840999996e+00 -0.0000000000000000e+00
0.0000000000000000e+00 8.5636343523999994e+00 1.0000000000000000e-02
0.0000000000000000e+00 2.4221615688600000e+01 0.0000000000000000e+00
ITEM: ATOMS id type xs ys zs fx fy fz
1 1 0.875 0.0972222 0.0972222 8.89222e-05 -0.0924983 -0.207482
4 1 0.375 0.263889 0.0138889 0.000675606 0.116957 0.186614
8 1 0.375 0.375 0.125 0.000126966 0.0202828 0.0845971
5 1 0.875 0.208333 0.208333 3.57027e-05 -0.00445306 0.0010246
12 1 0.375 0.486111 0.236111 -3.57027e-05 0.00445306 -0.0010246
9 1 0.875 0.319444 0.319444 -0.000126966 -0.0202828 -0.0845971
11 1 0.375 0.0416667 0.291667 -6.81971e-05 0.0240805 -0.0355314
15 1 0.375 0.152778 0.402778 -0.000504811 -0.00530606 0.0874684
13 1 0.875 0.430556 0.430556 -0.000675606 -0.116957 -0.186614
2 1 0.875 0.541667 0.0416667 0.000504811 0.00530606 -0.0874684
3 1 0.375 0.819444 0.0694444 0.000526239 -0.0489382 -0.148487
6 1 0.875 0.652778 0.152778 6.8197e-05 -0.0240805 0.0355314
7 1 0.375 0.930556 0.180556 0.000140883 0.000369572 0.0420309
10 1 0.875 0.763889 0.263889 -0.000140883 -0.000369572 -0.0420309
14 1 0.875 0.875 0.375 -0.000526238 0.0489382 0.148487
16 1 0.375 0.597222 0.347222 -8.89222e-05 0.0924983 0.207482
