ITEM: TIMESTEP
0
ITEM: NUMBER OF ATOMS
4
ITEM: BOX BOUNDS xy xz yz pp pp pp
0.0000000000000000e+00 4.0369359481000000e+00 0.0000000000000000e+00
0.0000000000000000e+00 4.0773053075999997e+00 0.0000000000000000e+00
0.0000000000000000e+00 4.0367340963000000e+00 4.0369359500000000e-02
ITEM: ATOMS id type xs ys zs fx fy fz
1 1 0 0 0 2.36873e-10 1.30776e-10 2.35738e-10
2 1 0 0.5 0.5 2.36873e-10 -1.30778e-10 -2.35738e-10
3 1 0.5 0.5 0 -2.36873e-10 -3.43137e-10 2.53061e-10
4 1 0.5 1 0.5 -2.36873e-10 3.43139e-10 -2.53061e-10
ITEM: TIMESTEP
2
ITEM: NUMBER OF ATOMS
4
ITEM: BOX BOUNDS xy xz yz pp pp pp
0.0000000000000000e+00 4.0369359481000000e+00 0.0000000000000000e+00
0.0000000000000000e+00 4.0773053075999997e+00 0.0000000000000000e+00
0.0000000000000000e+00 4.0367340963000000e+00 4.0369359500000000e-02
ITEM: ATOMS id type xs ys zs fx fy fz
1 1 6.20839e-12 1 6.18598e-12 -5.9576e-13 2.52157e-13 2.75907e-13
2 1 6.20841e-12 0.5 0.5 -5.96342e-13 -2.51222e-13 -2.75071e-13
3 1 0.5 0.5 6.18521e-12 5.96315e-13 -3.00372e-13 3.08466e-13
4 1 0.5 1 0.5 5.95649e-13 2.99405e-13 -3.09334e-13
