
4 atoms
1 atom types
   0.0000000000    3.7429772351 xlo xhi
   0.0000000000    3.7429772351 ylo yhi
   0.0000000000    3.7429772351 zlo zhi
   0.0000000000   -0.0000000000   -0.0000000000 xy xz yz

Atoms # atomic

     1      1    0.0000000000    0.0000000000    0.0000000000
     2      1    0.0000000000    1.8714886175    1.8714886175
     3      1    1.8714886175    1.8714886175    0.0000000000
     4      1    1.8714886175    0.0000000000    1.8714886175
