ITEM: TIMESTEP
0
ITEM: NUMBER OF ATOMS
4
ITEM: BOX BOUNDS xy xz yz pp pp pp
0.0000000000000000e+00 3.7429772351000001e+00 0.0000000000000000e+00
0.0000000000000000e+00 3.7429772351000001e+00 -0.0000000000000000e+00
0.0000000000000000e+00 3.7429772351000001e+00 -0.0000000000000000e+00
ITEM: ATOMS id type xs ys zs fx fy fz
1 1 0 0 0 -5.02188e-10 -5.02187e-10 -5.02187e-10
3 1 0.5 0.5 0 5.02188e-10 5.02187e-10 -5.02187e-10
2 1 0 0.5 0.5 -5.02188e-10 5.02187e-10 5.02188e-10
4 1 0.5 0 0.5 5.02188e-10 -5.02187e-10 5.02188e-10
ITEM: TIMESTEP
1
ITEM: NUMBER OF ATOMS
4
ITEM: BOX BOUNDS xy xz yz pp pp pp
0.0000000000000000e+00 3.7429772351000001e+00 0.0000000000000000e+00
0.0000000000000000e+00 3.7429772351000001e+00 -0.0000000000000000e+00
0.0000000000000000e+00 3.7429772351000001e+00 -0.0000000000000000e+00
ITEM: ATOMS id type xs ys zs fx fy fz
4 1 0.5 1 0.5 4.10783e-15 -3.94129e-15 4.66294e-15
3 1 0.5 0.5 1 4.10783e-15 4.10783e-15 -4.05231e-15
2 1 1 0.5 0.5 -4.21885e-15 4.38538e-15 4.55191e-15
1 1 1 1 1 -4.32987e-15 -4.27436e-15 -4.10783e-15
