ITEM: TIMESTEP
0
ITEM: NUMBER OF ATOMS
4
ITEM: BOX BOUNDS xy xz yz pp pp pp
0.0000000000000000e+00 4.0389296932000001e+00 -0.0000000000000000e+00
0.0000000000000000e+00 4.0389296932000001e+00 0.0000000000000000e+00
0.0000000000000000e+00 4.0389296932000001e+00 0.0000000000000000e+00
ITEM: ATOMS id type xs ys zs fx fy fz
1 1 0 0 0 0 -1.52656e-16 1.38778e-17
2 1 0 0.5 0.5 0 1.52656e-16 -1.38778e-17
4 1 0.5 0.5 0 0 1.52656e-16 -1.38778e-17
3 1 0.5 0 0.5 0 -1.52656e-16 1.38778e-17
ITEM: TIMESTEP
30
ITEM: NUMBER OF ATOMS
4
ITEM: BOX BOUNDS xy xz yz pp pp pp
-5.5345968816787224e-03 4.0444642900816810e+00 -0.0000000000000000e+00
-5.5345968816787224e-03 4.0444642900816810e+00 0.0000000000000000e+00
-5.5345968816787224e-03 4.0444642900816810e+00 0.0000000000000000e+00
ITEM: ATOMS id type xs ys zs fx fy fz
1 1 0 0 0 -4.39281e-15 -4.08911e-15 -3.32028e-15
4 1 0.5 0.5 0 5.05151e-15 4.84959e-15 -5.56151e-15
2 1 0 0.5 0.5 -5.76573e-15 5.17018e-15 4.4964e-15
3 1 0.5 0 0.5 5.10703e-15 -5.93065e-15 4.38538e-15
ITEM: TIMESTEP
31
ITEM: NUMBER OF ATOMS
4
ITEM: BOX BOUNDS xy xz yz pp pp pp
-5.5345968816788039e-03 4.0444642900816810e+00 -0.0000000000000000e+00
-5.5345968816788152e-03 4.0444642900816810e+00 0.0000000000000000e+00
-5.5345968816787961e-03 4.0444642900816810e+00 0.0000000000000000e+00
ITEM: ATOMS id type xs ys zs fx fy fz
1 1 0 0 0 -4.39281e-15 -4.08911e-15 -3.32028e-15
4 1 0.5 0.5 0 5.05151e-15 4.84959e-15 -5.56151e-15
2 1 0 0.5 0.5 -5.76573e-15 5.17018e-15 4.4964e-15
3 1 0.5 0 0.5 5.10703e-15 -5.93065e-15 4.38538e-15
ITEM: TIMESTEP
32
ITEM: NUMBER OF ATOMS
4
ITEM: BOX BOUNDS xy xz yz pp pp pp
-5.5345968816788845e-03 4.0444642900816810e+00 1.2362062506973975e-16
-5.5345968816789062e-03 4.0444642900816810e+00 1.3185582277843031e-16
-5.5345968816788689e-03 4.0444642900816810e+00 1.4647558327401585e-16
ITEM: ATOMS id type xs ys zs fx fy fz
1 1 1.99836e-15 1.11022e-15 0 -3.16207e-14 -2.65824e-14 -1.52272e-15
2 1 -5.82836e-20 0.5 0.5 2.25169e-14 2.61548e-14 2.53936e-15
4 1 0.5 0.5 0 4.52289e-15 -3.36742e-15 -3.63981e-15
3 1 0.5 -9.36804e-20 0.5 4.58094e-15 3.79511e-15 2.62317e-15
