
4 atoms
1 atom types
   0.0000000000    4.3486574240 xlo xhi
   0.0000000000    4.3486574240 ylo yhi
   0.0000000000    4.3486574240 zlo zhi
  -0.0000000000   -0.0000000000   -0.0000000000 xy xz yz

Atoms # atomic

     1      1    0.0000000000    0.0000000000    0.0000000000
     2      1    0.0000000000    2.1743287121    2.1743287121
     3      1    2.1743287121    2.1743287121    0.0000000000
     4      1    2.1743287121    0.0000000000    2.1743287121
