ITEM: TIMESTEP
0
ITEM: NUMBER OF ATOMS
4
ITEM: BOX BOUNDS xy xz yz pp pp pp
0.0000000000000000e+00 4.3486574239999998e+00 -0.0000000000000000e+00
0.0000000000000000e+00 4.3486574239999998e+00 -0.0000000000000000e+00
0.0000000000000000e+00 4.3486574239999998e+00 -0.0000000000000000e+00
ITEM: ATOMS id type xs ys zs fx fy fz
1 1 0 0 0 1.60524e-10 1.60524e-10 1.60524e-10
2 1 0 0.5 0.5 1.60524e-10 -1.60524e-10 -1.60524e-10
3 1 0.5 0.5 0 -1.60524e-10 -1.60524e-10 1.60524e-10
4 1 0.5 0 0.5 -1.60524e-10 1.60524e-10 -1.60524e-10
ITEM: TIMESTEP
1
ITEM: NUMBER OF ATOMS
4
ITEM: BOX BOUNDS xy xz yz pp pp pp
0.0000000000000000e+00 4.3486574239999998e+00 -0.0000000000000000e+00
0.0000000000000000e+00 4.3486574239999998e+00 -0.0000000000000000e+00
0.0000000000000000e+00 4.3486574239999998e+00 -0.0000000000000000e+00
ITEM: ATOMS id type xs ys zs fx fy fz
1 1 1.14978e-11 1.14978e-11 1.14978e-11 3.33067e-16 3.31332e-16 -2.90902e-18
2 1 1.14978e-11 0.5 0.5 1.38778e-16 -2.95878e-16 -1.43335e-16
3 1 0.5 0.5 1.14978e-11 -2.77556e-16 -2.49691e-16 2.67333e-16
4 1 0.5 1.14978e-11 0.5 -2.498e-16 2.12612e-16 -1.05286e-16
