ITEM: TIMESTEP
0
ITEM: NUMBER OF ATOMS
4
ITEM: BOX BOUNDS xy xz yz pp pp pp
0.0000000000000000e+00 4.0499988870000001e+00 0.0000000000000000e+00
0.0000000000000000e+00 4.0701985079999998e+00 0.0000000000000000e+00
0.0000000000000000e+00 4.0499988870000001e+00 0.0000000000000000e+00
ITEM: ATOMS id type xs ys zs fx fy fz
1 1 0 0 0 0 0 -8.32667e-17
4 1 0.5 0 0.5 -2.77556e-17 0 3.05311e-16
3 1 0.5 0.5 0 2.77556e-17 0 -2.22045e-16
2 1 0 0.5 0.5 0 0 0
ITEM: TIMESTEP
1
ITEM: NUMBER OF ATOMS
4
ITEM: BOX BOUNDS xy xz yz pp pp pp
0.0000000000000000e+00 4.0499988870000001e+00 0.0000000000000000e+00
0.0000000000000000e+00 4.0701985079999998e+00 0.0000000000000000e+00
0.0000000000000000e+00 4.0499988870000001e+00 0.0000000000000000e+00
ITEM: ATOMS id type xs ys zs fx fy fz
1 1 0 0 0 0 0 -8.32667e-17
4 1 0.5 0 0.5 -2.77556e-17 0 3.05311e-16
3 1 0.5 0.5 0 2.77556e-17 0 -2.22045e-16
2 1 0 0.5 0.5 0 0 0
