 running   14 mpi-ranks, with    2 threads/rank, on    1 nodes
 distrk:  each k-point on   14 cores,    1 groups
 distr:  one band on    1 cores,   14 groups
 vasp.6.4.2 20Jul23 (build Apr 22 2024 22:35:45) complex                         
 POSCAR found type information on POSCAR Al
 POSCAR found :  1 types and       4 ions
 scaLAPACK will be used
 -----------------------------------------------------------------------------
|                                                                             |
|               ----> ADVICE to this user running VASP <----                  |
|                                                                             |
|     You have a (more or less) 'small supercell' and for smaller cells       |
|     it is recommended to use the reciprocal-space projection scheme!        |
|     The real-space optimization is not efficient for small cells and it     |
|     is also less accurate ...                                               |
|     Therefore, set LREAL=.FALSE. in the INCAR file.                         |
|                                                                             |
 -----------------------------------------------------------------------------

 LDA part: xc-table for Pade appr. of Perdew
 POSCAR, INCAR and KPOINTS ok, starting setup
 FFT: planning ... GRIDC
 FFT: planning ... GRID_SOFT
 FFT: planning ... GRID
 WAVECAR not read
 entering main loop
       N       E                     dE             d eps       ncg     rms          rms(c)
DAV:   1    -0.231053504560E+01   -0.23105E+01   -0.38504E+03 15526   0.523E+02
DAV:   2    -0.150022269945E+02   -0.12692E+02   -0.12324E+02 22680   0.482E+01
DAV:   3    -0.150746177430E+02   -0.72391E-01   -0.72122E-01 20034   0.485E+00
DAV:   4    -0.150747832849E+02   -0.16554E-03   -0.16553E-03 25536   0.230E-01
DAV:   5    -0.150747833608E+02   -0.75873E-07   -0.76982E-07 20328   0.397E-03    0.264E+00
RMM:   6    -0.150223379864E+02    0.52445E-01   -0.52344E-03 15400   0.420E-01    0.155E+00
RMM:   7    -0.149839734873E+02    0.38364E-01   -0.16032E-02 15400   0.703E-01    0.226E-01
RMM:   8    -0.149839425856E+02    0.30902E-04   -0.58597E-04 15400   0.161E-01    0.279E-02
RMM:   9    -0.149839483566E+02   -0.57710E-05   -0.99136E-05 15400   0.694E-02    0.238E-02
RMM:  10    -0.149839492704E+02   -0.91381E-06   -0.21915E-05 15400   0.328E-02    0.230E-02
RMM:  11    -0.149839448817E+02    0.43887E-05   -0.42485E-06 15109   0.126E-02    0.543E-03
RMM:  12    -0.149839447605E+02    0.12117E-06   -0.11341E-06 11400   0.797E-03
   1 F= -.14983945E+02 E0= -.14984531E+02  d E =-.149839E+02
 curvature:   0.00 expect dE= 0.000E+00 dE for cont linesearch  0.000E+00
 trial: gam= 0.00000 g(F)=  0.164E-62 g(S)=  0.000E+00 ort = 0.000E+00 (trialstep = 0.100E+01)
 search vector abs. value=  0.100E-09
 reached required accuracy - stopping structural energy minimisation
