<?xml version="1.0" encoding="ISO-8859-1"?>
<modeling>
 <generator>
  <i name="program" type="string">vasp </i>
  <i name="version" type="string">6.4.2  </i>
  <i name="subversion" type="string">20Jul23 (build Apr 22 2024 22:35:45) complex                          parallel </i>
  <i name="platform" type="string">LinuxGNU </i>
  <i name="date" type="string">2024 05 26 </i>
  <i name="time" type="string">16:01:43 </i>
 </generator>
 <incar>
  <i type="string" name="SYSTEM">Al fcc relaxation</i>
  <i type="string" name="PREC">Accurate</i>
  <i type="string" name="ALGO">Fast</i>
  <i type="int" name="NELM">    60</i>
  <i type="int" name="NELMIN">     4</i>
  <i type="int" name="IBRION">     2</i>
  <i name="EDIFF">      0.00000100</i>
  <i type="int" name="NSW">   100</i>
  <i type="int" name="ISIF">     2</i>
  <i name="ENCUT">    400.00000000</i>
  <i type="string" name="LREAL">Auto</i>
  <i type="int" name="ISMEAR">     1</i>
  <i name="SIGMA">      0.20000000</i>
  <i name="KSPACING">      0.08000000</i>
  <i type="logical" name="LWAVE"> F  </i>
  <i type="logical" name="LCHARG"> F  </i>
 </incar>
 <primitive_cell>
  <structure name="primitive_cell" >
   <crystal>
    <varray name="basis" >
     <v>      -1.99916820      -0.00000000      -2.01946485 </v>
     <v>      -1.99916820       0.00000000       2.01946485 </v>
     <v>       1.99916820       2.01946485       0.00000000 </v>
    </varray>
    <i name="volume">     16.30616853 </i>
    <varray name="rec_basis" >
     <v>      -0.25010402       0.24759035      -0.24759035 </v>
     <v>      -0.25010402       0.24759035       0.24759035 </v>
     <v>       0.00000000       0.49518069      -0.00000000 </v>
    </varray>
   </crystal>
   <varray name="positions" >
    <v>       0.00000000       0.00000000       0.00000000 </v>
   </varray>
  </structure>
  <varray name="primitive_index" >
   <v type="int" >        1 </v>
  </varray>
 </primitive_cell>
 <kpoints>
  <generation param="Monkhorst-Pack">
   <v type="int" name="divisions">      20       20       20 </v>
   <v name="usershift">      0.00000000       0.00000000       0.00000000 </v>
   <v name="genvec1">      0.05000000       0.00000000       0.00000000 </v>
   <v name="genvec2">      0.00000000       0.05000000       0.00000000 </v>
   <v name="genvec3">      0.00000000       0.00000000       0.05000000 </v>
   <v name="shift">      0.50000000       0.50000000       0.50000000 </v>
  </generation>
  <varray name="kpointlist" >
   <v>       0.02500000       0.02500000       0.02500000 </v>
   <v>       0.07500000       0.02500000       0.02500000 </v>
   <v>       0.12500000       0.02500000       0.02500000 </v>
   <v>       0.17500000       0.02500000       0.02500000 </v>
   <v>       0.22500000       0.02500000       0.02500000 </v>
   <v>       0.27500000       0.02500000       0.02500000 </v>
   <v>       0.32500000       0.02500000       0.02500000 </v>
   <v>       0.37500000       0.02500000       0.02500000 </v>
   <v>       0.42500000       0.02500000       0.02500000 </v>
   <v>       0.47500000       0.02500000       0.02500000 </v>
   <v>       0.02500000       0.07500000       0.02500000 </v>
   <v>       0.07500000       0.07500000       0.02500000 </v>
   <v>       0.12500000       0.07500000       0.02500000 </v>
   <v>       0.17500000       0.07500000       0.02500000 </v>
   <v>       0.22500000       0.07500000       0.02500000 </v>
   <v>       0.27500000       0.07500000       0.02500000 </v>
   <v>       0.32500000       0.07500000       0.02500000 </v>
   <v>       0.37500000       0.07500000       0.02500000 </v>
   <v>       0.42500000       0.07500000       0.02500000 </v>
   <v>       0.47500000       0.07500000       0.02500000 </v>
   <v>       0.02500000       0.12500000       0.02500000 </v>
   <v>       0.07500000       0.12500000       0.02500000 </v>
   <v>       0.12500000       0.12500000       0.02500000 </v>
   <v>       0.17500000       0.12500000       0.02500000 </v>
   <v>       0.22500000       0.12500000       0.02500000 </v>
   <v>       0.27500000       0.12500000       0.02500000 </v>
   <v>       0.32500000       0.12500000       0.02500000 </v>
   <v>       0.37500000       0.12500000       0.02500000 </v>
   <v>       0.42500000       0.12500000       0.02500000 </v>
   <v>       0.47500000       0.12500000       0.02500000 </v>
   <v>       0.02500000       0.17500000       0.02500000 </v>
   <v>       0.07500000       0.17500000       0.02500000 </v>
   <v>       0.12500000       0.17500000       0.02500000 </v>
   <v>       0.17500000       0.17500000       0.02500000 </v>
   <v>       0.22500000       0.17500000       0.02500000 </v>
   <v>       0.27500000       0.17500000       0.02500000 </v>
   <v>       0.32500000       0.17500000       0.02500000 </v>
   <v>       0.37500000       0.17500000       0.02500000 </v>
   <v>       0.42500000       0.17500000       0.02500000 </v>
   <v>       0.47500000       0.17500000       0.02500000 </v>
   <v>       0.02500000       0.22500000       0.02500000 </v>
   <v>       0.07500000       0.22500000       0.02500000 </v>
   <v>       0.12500000       0.22500000       0.02500000 </v>
   <v>       0.17500000       0.22500000       0.02500000 </v>
   <v>       0.22500000       0.22500000       0.02500000 </v>
   <v>       0.27500000       0.22500000       0.02500000 </v>
   <v>       0.32500000       0.22500000       0.02500000 </v>
   <v>       0.37500000       0.22500000       0.02500000 </v>
   <v>       0.42500000       0.22500000       0.02500000 </v>
   <v>       0.47500000       0.22500000       0.02500000 </v>
   <v>       0.02500000       0.27500000       0.02500000 </v>
   <v>       0.07500000       0.27500000       0.02500000 </v>
   <v>       0.12500000       0.27500000       0.02500000 </v>
   <v>       0.17500000       0.27500000       0.02500000 </v>
   <v>       0.22500000       0.27500000       0.02500000 </v>
   <v>       0.27500000       0.27500000       0.02500000 </v>
   <v>       0.32500000       0.27500000       0.02500000 </v>
   <v>       0.37500000       0.27500000       0.02500000 </v>
   <v>       0.42500000       0.27500000       0.02500000 </v>
   <v>       0.47500000       0.27500000       0.02500000 </v>
   <v>       0.02500000       0.32500000       0.02500000 </v>
   <v>       0.07500000       0.32500000       0.02500000 </v>
   <v>       0.12500000       0.32500000       0.02500000 </v>
   <v>       0.17500000       0.32500000       0.02500000 </v>
   <v>       0.22500000       0.32500000       0.02500000 </v>
   <v>       0.27500000       0.32500000       0.02500000 </v>
   <v>       0.32500000       0.32500000       0.02500000 </v>
   <v>       0.37500000       0.32500000       0.02500000 </v>
   <v>       0.42500000       0.32500000       0.02500000 </v>
   <v>       0.47500000       0.32500000       0.02500000 </v>
   <v>       0.02500000       0.37500000       0.02500000 </v>
   <v>       0.07500000       0.37500000       0.02500000 </v>
   <v>       0.12500000       0.37500000       0.02500000 </v>
   <v>       0.17500000       0.37500000       0.02500000 </v>
   <v>       0.22500000       0.37500000       0.02500000 </v>
   <v>       0.27500000       0.37500000       0.02500000 </v>
   <v>       0.32500000       0.37500000       0.02500000 </v>
   <v>       0.37500000       0.37500000       0.02500000 </v>
   <v>       0.42500000       0.37500000       0.02500000 </v>
   <v>       0.47500000       0.37500000       0.02500000 </v>
   <v>       0.02500000       0.42500000       0.02500000 </v>
   <v>       0.07500000       0.42500000       0.02500000 </v>
   <v>       0.12500000       0.42500000       0.02500000 </v>
   <v>       0.17500000       0.42500000       0.02500000 </v>
   <v>       0.22500000       0.42500000       0.02500000 </v>
   <v>       0.27500000       0.42500000       0.02500000 </v>
   <v>       0.32500000       0.42500000       0.02500000 </v>
   <v>       0.37500000       0.42500000       0.02500000 </v>
   <v>       0.42500000       0.42500000       0.02500000 </v>
   <v>       0.47500000       0.42500000       0.02500000 </v>
   <v>       0.02500000       0.47500000       0.02500000 </v>
   <v>       0.07500000       0.47500000       0.02500000 </v>
   <v>       0.12500000       0.47500000       0.02500000 </v>
   <v>       0.17500000       0.47500000       0.02500000 </v>
   <v>       0.22500000       0.47500000       0.02500000 </v>
   <v>       0.27500000       0.47500000       0.02500000 </v>
   <v>       0.32500000       0.47500000       0.02500000 </v>
   <v>       0.37500000       0.47500000       0.02500000 </v>
   <v>       0.42500000       0.47500000       0.02500000 </v>
   <v>       0.47500000       0.47500000       0.02500000 </v>
   <v>       0.02500000       0.07500000       0.07500000 </v>
   <v>       0.07500000       0.07500000       0.07500000 </v>
   <v>       0.12500000       0.07500000       0.07500000 </v>
   <v>       0.17500000       0.07500000       0.07500000 </v>
   <v>       0.22500000       0.07500000       0.07500000 </v>
   <v>       0.27500000       0.07500000       0.07500000 </v>
   <v>       0.32500000       0.07500000       0.07500000 </v>
   <v>       0.37500000       0.07500000       0.07500000 </v>
   <v>       0.42500000       0.07500000       0.07500000 </v>
   <v>       0.47500000       0.07500000       0.07500000 </v>
   <v>       0.02500000       0.12500000       0.07500000 </v>
   <v>       0.07500000       0.12500000       0.07500000 </v>
   <v>       0.12500000       0.12500000       0.07500000 </v>
   <v>       0.17500000       0.12500000       0.07500000 </v>
   <v>       0.22500000       0.12500000       0.07500000 </v>
   <v>       0.27500000       0.12500000       0.07500000 </v>
   <v>       0.32500000       0.12500000       0.07500000 </v>
   <v>       0.37500000       0.12500000       0.07500000 </v>
   <v>       0.42500000       0.12500000       0.07500000 </v>
   <v>       0.47500000       0.12500000       0.07500000 </v>
   <v>       0.02500000       0.17500000       0.07500000 </v>
   <v>       0.07500000       0.17500000       0.07500000 </v>
   <v>       0.12500000       0.17500000       0.07500000 </v>
   <v>       0.17500000       0.17500000       0.07500000 </v>
   <v>       0.22500000       0.17500000       0.07500000 </v>
   <v>       0.27500000       0.17500000       0.07500000 </v>
   <v>       0.32500000       0.17500000       0.07500000 </v>
   <v>       0.37500000       0.17500000       0.07500000 </v>
   <v>       0.42500000       0.17500000       0.07500000 </v>
   <v>       0.47500000       0.17500000       0.07500000 </v>
   <v>       0.02500000       0.22500000       0.07500000 </v>
   <v>       0.07500000       0.22500000       0.07500000 </v>
   <v>       0.12500000       0.22500000       0.07500000 </v>
   <v>       0.17500000       0.22500000       0.07500000 </v>
   <v>       0.22500000       0.22500000       0.07500000 </v>
   <v>       0.27500000       0.22500000       0.07500000 </v>
   <v>       0.32500000       0.22500000       0.07500000 </v>
   <v>       0.37500000       0.22500000       0.07500000 </v>
   <v>       0.42500000       0.22500000       0.07500000 </v>
   <v>       0.47500000       0.22500000       0.07500000 </v>
   <v>       0.02500000       0.27500000       0.07500000 </v>
   <v>       0.07500000       0.27500000       0.07500000 </v>
   <v>       0.12500000       0.27500000       0.07500000 </v>
   <v>       0.17500000       0.27500000       0.07500000 </v>
   <v>       0.22500000       0.27500000       0.07500000 </v>
   <v>       0.27500000       0.27500000       0.07500000 </v>
   <v>       0.32500000       0.27500000       0.07500000 </v>
   <v>       0.37500000       0.27500000       0.07500000 </v>
   <v>       0.42500000       0.27500000       0.07500000 </v>
   <v>       0.47500000       0.27500000       0.07500000 </v>
   <v>       0.02500000       0.32500000       0.07500000 </v>
   <v>       0.07500000       0.32500000       0.07500000 </v>
   <v>       0.12500000       0.32500000       0.07500000 </v>
   <v>       0.17500000       0.32500000       0.07500000 </v>
   <v>       0.22500000       0.32500000       0.07500000 </v>
   <v>       0.27500000       0.32500000       0.07500000 </v>
   <v>       0.32500000       0.32500000       0.07500000 </v>
   <v>       0.37500000       0.32500000       0.07500000 </v>
   <v>       0.42500000       0.32500000       0.07500000 </v>
   <v>       0.47500000       0.32500000       0.07500000 </v>
   <v>       0.02500000       0.37500000       0.07500000 </v>
   <v>       0.07500000       0.37500000       0.07500000 </v>
   <v>       0.12500000       0.37500000       0.07500000 </v>
   <v>       0.17500000       0.37500000       0.07500000 </v>
   <v>       0.22500000       0.37500000       0.07500000 </v>
   <v>       0.27500000       0.37500000       0.07500000 </v>
   <v>       0.32500000       0.37500000       0.07500000 </v>
   <v>       0.37500000       0.37500000       0.07500000 </v>
   <v>       0.42500000       0.37500000       0.07500000 </v>
   <v>       0.47500000       0.37500000       0.07500000 </v>
   <v>       0.02500000       0.42500000       0.07500000 </v>
   <v>       0.07500000       0.42500000       0.07500000 </v>
   <v>       0.12500000       0.42500000       0.07500000 </v>
   <v>       0.17500000       0.42500000       0.07500000 </v>
   <v>       0.22500000       0.42500000       0.07500000 </v>
   <v>       0.27500000       0.42500000       0.07500000 </v>
   <v>       0.32500000       0.42500000       0.07500000 </v>
   <v>       0.37500000       0.42500000       0.07500000 </v>
   <v>       0.42500000       0.42500000       0.07500000 </v>
   <v>       0.47500000       0.42500000       0.07500000 </v>
   <v>       0.02500000       0.47500000       0.07500000 </v>
   <v>       0.07500000       0.47500000       0.07500000 </v>
   <v>       0.12500000       0.47500000       0.07500000 </v>
   <v>       0.17500000       0.47500000       0.07500000 </v>
   <v>       0.22500000       0.47500000       0.07500000 </v>
   <v>       0.27500000       0.47500000       0.07500000 </v>
   <v>       0.32500000       0.47500000       0.07500000 </v>
   <v>       0.37500000       0.47500000       0.07500000 </v>
   <v>       0.42500000       0.47500000       0.07500000 </v>
   <v>       0.47500000       0.47500000       0.07500000 </v>
   <v>       0.02500000       0.12500000       0.12500000 </v>
   <v>       0.07500000       0.12500000       0.12500000 </v>
   <v>       0.12500000       0.12500000       0.12500000 </v>
   <v>       0.17500000       0.12500000       0.12500000 </v>
   <v>       0.22500000       0.12500000       0.12500000 </v>
   <v>       0.27500000       0.12500000       0.12500000 </v>
   <v>       0.32500000       0.12500000       0.12500000 </v>
   <v>       0.37500000       0.12500000       0.12500000 </v>
   <v>       0.42500000       0.12500000       0.12500000 </v>
   <v>       0.47500000       0.12500000       0.12500000 </v>
   <v>       0.02500000       0.17500000       0.12500000 </v>
   <v>       0.07500000       0.17500000       0.12500000 </v>
   <v>       0.12500000       0.17500000       0.12500000 </v>
   <v>       0.17500000       0.17500000       0.12500000 </v>
   <v>       0.22500000       0.17500000       0.12500000 </v>
   <v>       0.27500000       0.17500000       0.12500000 </v>
   <v>       0.32500000       0.17500000       0.12500000 </v>
   <v>       0.37500000       0.17500000       0.12500000 </v>
   <v>       0.42500000       0.17500000       0.12500000 </v>
   <v>       0.47500000       0.17500000       0.12500000 </v>
   <v>       0.02500000       0.22500000       0.12500000 </v>
   <v>       0.07500000       0.22500000       0.12500000 </v>
   <v>       0.12500000       0.22500000       0.12500000 </v>
   <v>       0.17500000       0.22500000       0.12500000 </v>
   <v>       0.22500000       0.22500000       0.12500000 </v>
   <v>       0.27500000       0.22500000       0.12500000 </v>
   <v>       0.32500000       0.22500000       0.12500000 </v>
   <v>       0.37500000       0.22500000       0.12500000 </v>
   <v>       0.42500000       0.22500000       0.12500000 </v>
   <v>       0.47500000       0.22500000       0.12500000 </v>
   <v>       0.02500000       0.27500000       0.12500000 </v>
   <v>       0.07500000       0.27500000       0.12500000 </v>
   <v>       0.12500000       0.27500000       0.12500000 </v>
   <v>       0.17500000       0.27500000       0.12500000 </v>
   <v>       0.22500000       0.27500000       0.12500000 </v>
   <v>       0.27500000       0.27500000       0.12500000 </v>
   <v>       0.32500000       0.27500000       0.12500000 </v>
   <v>       0.37500000       0.27500000       0.12500000 </v>
   <v>       0.42500000       0.27500000       0.12500000 </v>
   <v>       0.47500000       0.27500000       0.12500000 </v>
   <v>       0.02500000       0.32500000       0.12500000 </v>
   <v>       0.07500000       0.32500000       0.12500000 </v>
   <v>       0.12500000       0.32500000       0.12500000 </v>
   <v>       0.17500000       0.32500000       0.12500000 </v>
   <v>       0.22500000       0.32500000       0.12500000 </v>
   <v>       0.27500000       0.32500000       0.12500000 </v>
   <v>       0.32500000       0.32500000       0.12500000 </v>
   <v>       0.37500000       0.32500000       0.12500000 </v>
   <v>       0.42500000       0.32500000       0.12500000 </v>
   <v>       0.47500000       0.32500000       0.12500000 </v>
   <v>       0.02500000       0.37500000       0.12500000 </v>
   <v>       0.07500000       0.37500000       0.12500000 </v>
   <v>       0.12500000       0.37500000       0.12500000 </v>
   <v>       0.17500000       0.37500000       0.12500000 </v>
   <v>       0.22500000       0.37500000       0.12500000 </v>
   <v>       0.27500000       0.37500000       0.12500000 </v>
   <v>       0.32500000       0.37500000       0.12500000 </v>
   <v>       0.37500000       0.37500000       0.12500000 </v>
   <v>       0.42500000       0.37500000       0.12500000 </v>
   <v>       0.47500000       0.37500000       0.12500000 </v>
   <v>       0.02500000       0.42500000       0.12500000 </v>
   <v>       0.07500000       0.42500000       0.12500000 </v>
   <v>       0.12500000       0.42500000       0.12500000 </v>
   <v>       0.17500000       0.42500000       0.12500000 </v>
   <v>       0.22500000       0.42500000       0.12500000 </v>
   <v>       0.27500000       0.42500000       0.12500000 </v>
   <v>       0.32500000       0.42500000       0.12500000 </v>
   <v>       0.37500000       0.42500000       0.12500000 </v>
   <v>       0.42500000       0.42500000       0.12500000 </v>
   <v>       0.47500000       0.42500000       0.12500000 </v>
   <v>       0.02500000       0.47500000       0.12500000 </v>
   <v>       0.07500000       0.47500000       0.12500000 </v>
   <v>       0.12500000       0.47500000       0.12500000 </v>
   <v>       0.17500000       0.47500000       0.12500000 </v>
   <v>       0.22500000       0.47500000       0.12500000 </v>
   <v>       0.27500000       0.47500000       0.12500000 </v>
   <v>       0.32500000       0.47500000       0.12500000 </v>
   <v>       0.37500000       0.47500000       0.12500000 </v>
   <v>       0.42500000       0.47500000       0.12500000 </v>
   <v>       0.47500000       0.47500000       0.12500000 </v>
   <v>       0.02500000       0.17500000       0.17500000 </v>
   <v>       0.07500000       0.17500000       0.17500000 </v>
   <v>       0.12500000       0.17500000       0.17500000 </v>
   <v>       0.17500000       0.17500000       0.17500000 </v>
   <v>       0.22500000       0.17500000       0.17500000 </v>
   <v>       0.27500000       0.17500000       0.17500000 </v>
   <v>       0.32500000       0.17500000       0.17500000 </v>
   <v>       0.37500000       0.17500000       0.17500000 </v>
   <v>       0.42500000       0.17500000       0.17500000 </v>
   <v>       0.47500000       0.17500000       0.17500000 </v>
   <v>       0.02500000       0.22500000       0.17500000 </v>
   <v>       0.07500000       0.22500000       0.17500000 </v>
   <v>       0.12500000       0.22500000       0.17500000 </v>
   <v>       0.17500000       0.22500000       0.17500000 </v>
   <v>       0.22500000       0.22500000       0.17500000 </v>
   <v>       0.27500000       0.22500000       0.17500000 </v>
   <v>       0.32500000       0.22500000       0.17500000 </v>
   <v>       0.37500000       0.22500000       0.17500000 </v>
   <v>       0.42500000       0.22500000       0.17500000 </v>
   <v>       0.47500000       0.22500000       0.17500000 </v>
   <v>       0.02500000       0.27500000       0.17500000 </v>
   <v>       0.07500000       0.27500000       0.17500000 </v>
   <v>       0.12500000       0.27500000       0.17500000 </v>
   <v>       0.17500000       0.27500000       0.17500000 </v>
   <v>       0.22500000       0.27500000       0.17500000 </v>
   <v>       0.27500000       0.27500000       0.17500000 </v>
   <v>       0.32500000       0.27500000       0.17500000 </v>
   <v>       0.37500000       0.27500000       0.17500000 </v>
   <v>       0.42500000       0.27500000       0.17500000 </v>
   <v>       0.47500000       0.27500000       0.17500000 </v>
   <v>       0.02500000       0.32500000       0.17500000 </v>
   <v>       0.07500000       0.32500000       0.17500000 </v>
   <v>       0.12500000       0.32500000       0.17500000 </v>
   <v>       0.17500000       0.32500000       0.17500000 </v>
   <v>       0.22500000       0.32500000       0.17500000 </v>
   <v>       0.27500000       0.32500000       0.17500000 </v>
   <v>       0.32500000       0.32500000       0.17500000 </v>
   <v>       0.37500000       0.32500000       0.17500000 </v>
   <v>       0.42500000       0.32500000       0.17500000 </v>
   <v>       0.47500000       0.32500000       0.17500000 </v>
   <v>       0.02500000       0.37500000       0.17500000 </v>
   <v>       0.07500000       0.37500000       0.17500000 </v>
   <v>       0.12500000       0.37500000       0.17500000 </v>
   <v>       0.17500000       0.37500000       0.17500000 </v>
   <v>       0.22500000       0.37500000       0.17500000 </v>
   <v>       0.27500000       0.37500000       0.17500000 </v>
   <v>       0.32500000       0.37500000       0.17500000 </v>
   <v>       0.37500000       0.37500000       0.17500000 </v>
   <v>       0.42500000       0.37500000       0.17500000 </v>
   <v>       0.47500000       0.37500000       0.17500000 </v>
   <v>       0.02500000       0.42500000       0.17500000 </v>
   <v>       0.07500000       0.42500000       0.17500000 </v>
   <v>       0.12500000       0.42500000       0.17500000 </v>
   <v>       0.17500000       0.42500000       0.17500000 </v>
   <v>       0.22500000       0.42500000       0.17500000 </v>
   <v>       0.27500000       0.42500000       0.17500000 </v>
   <v>       0.32500000       0.42500000       0.17500000 </v>
   <v>       0.37500000       0.42500000       0.17500000 </v>
   <v>       0.42500000       0.42500000       0.17500000 </v>
   <v>       0.47500000       0.42500000       0.17500000 </v>
   <v>       0.02500000       0.47500000       0.17500000 </v>
   <v>       0.07500000       0.47500000       0.17500000 </v>
   <v>       0.12500000       0.47500000       0.17500000 </v>
   <v>       0.17500000       0.47500000       0.17500000 </v>
   <v>       0.22500000       0.47500000       0.17500000 </v>
   <v>       0.27500000       0.47500000       0.17500000 </v>
   <v>       0.32500000       0.47500000       0.17500000 </v>
   <v>       0.37500000       0.47500000       0.17500000 </v>
   <v>       0.42500000       0.47500000       0.17500000 </v>
   <v>       0.47500000       0.47500000       0.17500000 </v>
   <v>       0.02500000       0.22500000       0.22500000 </v>
   <v>       0.07500000       0.22500000       0.22500000 </v>
   <v>       0.12500000       0.22500000       0.22500000 </v>
   <v>       0.17500000       0.22500000       0.22500000 </v>
   <v>       0.22500000       0.22500000       0.22500000 </v>
   <v>       0.27500000       0.22500000       0.22500000 </v>
   <v>       0.32500000       0.22500000       0.22500000 </v>
   <v>       0.37500000       0.22500000       0.22500000 </v>
   <v>       0.42500000       0.22500000       0.22500000 </v>
   <v>       0.47500000       0.22500000       0.22500000 </v>
   <v>       0.02500000       0.27500000       0.22500000 </v>
   <v>       0.07500000       0.27500000       0.22500000 </v>
   <v>       0.12500000       0.27500000       0.22500000 </v>
   <v>       0.17500000       0.27500000       0.22500000 </v>
   <v>       0.22500000       0.27500000       0.22500000 </v>
   <v>       0.27500000       0.27500000       0.22500000 </v>
   <v>       0.32500000       0.27500000       0.22500000 </v>
   <v>       0.37500000       0.27500000       0.22500000 </v>
   <v>       0.42500000       0.27500000       0.22500000 </v>
   <v>       0.47500000       0.27500000       0.22500000 </v>
   <v>       0.02500000       0.32500000       0.22500000 </v>
   <v>       0.07500000       0.32500000       0.22500000 </v>
   <v>       0.12500000       0.32500000       0.22500000 </v>
   <v>       0.17500000       0.32500000       0.22500000 </v>
   <v>       0.22500000       0.32500000       0.22500000 </v>
   <v>       0.27500000       0.32500000       0.22500000 </v>
   <v>       0.32500000       0.32500000       0.22500000 </v>
   <v>       0.37500000       0.32500000       0.22500000 </v>
   <v>       0.42500000       0.32500000       0.22500000 </v>
   <v>       0.47500000       0.32500000       0.22500000 </v>
   <v>       0.02500000       0.37500000       0.22500000 </v>
   <v>       0.07500000       0.37500000       0.22500000 </v>
   <v>       0.12500000       0.37500000       0.22500000 </v>
   <v>       0.17500000       0.37500000       0.22500000 </v>
   <v>       0.22500000       0.37500000       0.22500000 </v>
   <v>       0.27500000       0.37500000       0.22500000 </v>
   <v>       0.32500000       0.37500000       0.22500000 </v>
   <v>       0.37500000       0.37500000       0.22500000 </v>
   <v>       0.42500000       0.37500000       0.22500000 </v>
   <v>       0.47500000       0.37500000       0.22500000 </v>
   <v>       0.02500000       0.42500000       0.22500000 </v>
   <v>       0.07500000       0.42500000       0.22500000 </v>
   <v>       0.12500000       0.42500000       0.22500000 </v>
   <v>       0.17500000       0.42500000       0.22500000 </v>
   <v>       0.22500000       0.42500000       0.22500000 </v>
   <v>       0.27500000       0.42500000       0.22500000 </v>
   <v>       0.32500000       0.42500000       0.22500000 </v>
   <v>       0.37500000       0.42500000       0.22500000 </v>
   <v>       0.42500000       0.42500000       0.22500000 </v>
   <v>       0.47500000       0.42500000       0.22500000 </v>
   <v>       0.02500000       0.47500000       0.22500000 </v>
   <v>       0.07500000       0.47500000       0.22500000 </v>
   <v>       0.12500000       0.47500000       0.22500000 </v>
   <v>       0.17500000       0.47500000       0.22500000 </v>
   <v>       0.22500000       0.47500000       0.22500000 </v>
   <v>       0.27500000       0.47500000       0.22500000 </v>
   <v>       0.32500000       0.47500000       0.22500000 </v>
   <v>       0.37500000       0.47500000       0.22500000 </v>
   <v>       0.42500000       0.47500000       0.22500000 </v>
   <v>       0.47500000       0.47500000       0.22500000 </v>
   <v>       0.02500000       0.27500000       0.27500000 </v>
   <v>       0.07500000       0.27500000       0.27500000 </v>
   <v>       0.12500000       0.27500000       0.27500000 </v>
   <v>       0.17500000       0.27500000       0.27500000 </v>
   <v>       0.22500000       0.27500000       0.27500000 </v>
   <v>       0.27500000       0.27500000       0.27500000 </v>
   <v>       0.32500000       0.27500000       0.27500000 </v>
   <v>       0.37500000       0.27500000       0.27500000 </v>
   <v>       0.42500000       0.27500000       0.27500000 </v>
   <v>       0.47500000       0.27500000       0.27500000 </v>
   <v>       0.02500000       0.32500000       0.27500000 </v>
   <v>       0.07500000       0.32500000       0.27500000 </v>
   <v>       0.12500000       0.32500000       0.27500000 </v>
   <v>       0.17500000       0.32500000       0.27500000 </v>
   <v>       0.22500000       0.32500000       0.27500000 </v>
   <v>       0.27500000       0.32500000       0.27500000 </v>
   <v>       0.32500000       0.32500000       0.27500000 </v>
   <v>       0.37500000       0.32500000       0.27500000 </v>
   <v>       0.42500000       0.32500000       0.27500000 </v>
   <v>       0.47500000       0.32500000       0.27500000 </v>
   <v>       0.02500000       0.37500000       0.27500000 </v>
   <v>       0.07500000       0.37500000       0.27500000 </v>
   <v>       0.12500000       0.37500000       0.27500000 </v>
   <v>       0.17500000       0.37500000       0.27500000 </v>
   <v>       0.22500000       0.37500000       0.27500000 </v>
   <v>       0.27500000       0.37500000       0.27500000 </v>
   <v>       0.32500000       0.37500000       0.27500000 </v>
   <v>       0.37500000       0.37500000       0.27500000 </v>
   <v>       0.42500000       0.37500000       0.27500000 </v>
   <v>       0.47500000       0.37500000       0.27500000 </v>
   <v>       0.02500000       0.42500000       0.27500000 </v>
   <v>       0.07500000       0.42500000       0.27500000 </v>
   <v>       0.12500000       0.42500000       0.27500000 </v>
   <v>       0.17500000       0.42500000       0.27500000 </v>
   <v>       0.22500000       0.42500000       0.27500000 </v>
   <v>       0.27500000       0.42500000       0.27500000 </v>
   <v>       0.32500000       0.42500000       0.27500000 </v>
   <v>       0.37500000       0.42500000       0.27500000 </v>
   <v>       0.42500000       0.42500000       0.27500000 </v>
   <v>       0.47500000       0.42500000       0.27500000 </v>
   <v>       0.02500000       0.47500000       0.27500000 </v>
   <v>       0.07500000       0.47500000       0.27500000 </v>
   <v>       0.12500000       0.47500000       0.27500000 </v>
   <v>       0.17500000       0.47500000       0.27500000 </v>
   <v>       0.22500000       0.47500000       0.27500000 </v>
   <v>       0.27500000       0.47500000       0.27500000 </v>
   <v>       0.32500000       0.47500000       0.27500000 </v>
   <v>       0.37500000       0.47500000       0.27500000 </v>
   <v>       0.42500000       0.47500000       0.27500000 </v>
   <v>       0.47500000       0.47500000       0.27500000 </v>
   <v>       0.02500000       0.32500000       0.32500000 </v>
   <v>       0.07500000       0.32500000       0.32500000 </v>
   <v>       0.12500000       0.32500000       0.32500000 </v>
   <v>       0.17500000       0.32500000       0.32500000 </v>
   <v>       0.22500000       0.32500000       0.32500000 </v>
   <v>       0.27500000       0.32500000       0.32500000 </v>
   <v>       0.32500000       0.32500000       0.32500000 </v>
   <v>       0.37500000       0.32500000       0.32500000 </v>
   <v>       0.42500000       0.32500000       0.32500000 </v>
   <v>       0.47500000       0.32500000       0.32500000 </v>
   <v>       0.02500000       0.37500000       0.32500000 </v>
   <v>       0.07500000       0.37500000       0.32500000 </v>
   <v>       0.12500000       0.37500000       0.32500000 </v>
   <v>       0.17500000       0.37500000       0.32500000 </v>
   <v>       0.22500000       0.37500000       0.32500000 </v>
   <v>       0.27500000       0.37500000       0.32500000 </v>
   <v>       0.32500000       0.37500000       0.32500000 </v>
   <v>       0.37500000       0.37500000       0.32500000 </v>
   <v>       0.42500000       0.37500000       0.32500000 </v>
   <v>       0.47500000       0.37500000       0.32500000 </v>
   <v>       0.02500000       0.42500000       0.32500000 </v>
   <v>       0.07500000       0.42500000       0.32500000 </v>
   <v>       0.12500000       0.42500000       0.32500000 </v>
   <v>       0.17500000       0.42500000       0.32500000 </v>
   <v>       0.22500000       0.42500000       0.32500000 </v>
   <v>       0.27500000       0.42500000       0.32500000 </v>
   <v>       0.32500000       0.42500000       0.32500000 </v>
   <v>       0.37500000       0.42500000       0.32500000 </v>
   <v>       0.42500000       0.42500000       0.32500000 </v>
   <v>       0.47500000       0.42500000       0.32500000 </v>
   <v>       0.02500000       0.47500000       0.32500000 </v>
   <v>       0.07500000       0.47500000       0.32500000 </v>
   <v>       0.12500000       0.47500000       0.32500000 </v>
   <v>       0.17500000       0.47500000       0.32500000 </v>
   <v>       0.22500000       0.47500000       0.32500000 </v>
   <v>       0.27500000       0.47500000       0.32500000 </v>
   <v>       0.32500000       0.47500000       0.32500000 </v>
   <v>       0.37500000       0.47500000       0.32500000 </v>
   <v>       0.42500000       0.47500000       0.32500000 </v>
   <v>       0.47500000       0.47500000       0.32500000 </v>
   <v>       0.02500000       0.37500000       0.37500000 </v>
   <v>       0.07500000       0.37500000       0.37500000 </v>
   <v>       0.12500000       0.37500000       0.37500000 </v>
   <v>       0.17500000       0.37500000       0.37500000 </v>
   <v>       0.22500000       0.37500000       0.37500000 </v>
   <v>       0.27500000       0.37500000       0.37500000 </v>
   <v>       0.32500000       0.37500000       0.37500000 </v>
   <v>       0.37500000       0.37500000       0.37500000 </v>
   <v>       0.42500000       0.37500000       0.37500000 </v>
   <v>       0.47500000       0.37500000       0.37500000 </v>
   <v>       0.02500000       0.42500000       0.37500000 </v>
   <v>       0.07500000       0.42500000       0.37500000 </v>
   <v>       0.12500000       0.42500000       0.37500000 </v>
   <v>       0.17500000       0.42500000       0.37500000 </v>
   <v>       0.22500000       0.42500000       0.37500000 </v>
   <v>       0.27500000       0.42500000       0.37500000 </v>
   <v>       0.32500000       0.42500000       0.37500000 </v>
   <v>       0.37500000       0.42500000       0.37500000 </v>
   <v>       0.42500000       0.42500000       0.37500000 </v>
   <v>       0.47500000       0.42500000       0.37500000 </v>
   <v>       0.02500000       0.47500000       0.37500000 </v>
   <v>       0.07500000       0.47500000       0.37500000 </v>
   <v>       0.12500000       0.47500000       0.37500000 </v>
   <v>       0.17500000       0.47500000       0.37500000 </v>
   <v>       0.22500000       0.47500000       0.37500000 </v>
   <v>       0.27500000       0.47500000       0.37500000 </v>
   <v>       0.32500000       0.47500000       0.37500000 </v>
   <v>       0.37500000       0.47500000       0.37500000 </v>
   <v>       0.42500000       0.47500000       0.37500000 </v>
   <v>       0.47500000       0.47500000       0.37500000 </v>
   <v>       0.02500000       0.42500000       0.42500000 </v>
   <v>       0.07500000       0.42500000       0.42500000 </v>
   <v>       0.12500000       0.42500000       0.42500000 </v>
   <v>       0.17500000       0.42500000       0.42500000 </v>
   <v>       0.22500000       0.42500000       0.42500000 </v>
   <v>       0.27500000       0.42500000       0.42500000 </v>
   <v>       0.32500000       0.42500000       0.42500000 </v>
   <v>       0.37500000       0.42500000       0.42500000 </v>
   <v>       0.42500000       0.42500000       0.42500000 </v>
   <v>       0.47500000       0.42500000       0.42500000 </v>
   <v>       0.02500000       0.47500000       0.42500000 </v>
   <v>       0.07500000       0.47500000       0.42500000 </v>
   <v>       0.12500000       0.47500000       0.42500000 </v>
   <v>       0.17500000       0.47500000       0.42500000 </v>
   <v>       0.22500000       0.47500000       0.42500000 </v>
   <v>       0.27500000       0.47500000       0.42500000 </v>
   <v>       0.32500000       0.47500000       0.42500000 </v>
   <v>       0.37500000       0.47500000       0.42500000 </v>
   <v>       0.42500000       0.47500000       0.42500000 </v>
   <v>       0.47500000       0.47500000       0.42500000 </v>
   <v>       0.02500000       0.47500000       0.47500000 </v>
   <v>       0.07500000       0.47500000       0.47500000 </v>
   <v>       0.12500000       0.47500000       0.47500000 </v>
   <v>       0.17500000       0.47500000       0.47500000 </v>
   <v>       0.22500000       0.47500000       0.47500000 </v>
   <v>       0.27500000       0.47500000       0.47500000 </v>
   <v>       0.32500000       0.47500000       0.47500000 </v>
   <v>       0.37500000       0.47500000       0.47500000 </v>
   <v>       0.42500000       0.47500000       0.47500000 </v>
   <v>       0.47500000       0.47500000       0.47500000 </v>
  </varray>
  <varray name="weights" >
   <v>       0.00100000 </v>
   <v>       0.00100000 </v>
   <v>       0.00100000 </v>
   <v>       0.00100000 </v>
   <v>       0.00100000 </v>
   <v>       0.00100000 </v>
   <v>       0.00100000 </v>
   <v>       0.00100000 </v>
   <v>       0.00100000 </v>
   <v>       0.00100000 </v>
   <v>       0.00200000 </v>
   <v>       0.00200000 </v>
   <v>       0.00200000 </v>
   <v>       0.00200000 </v>
   <v>       0.00200000 </v>
   <v>       0.00200000 </v>
   <v>       0.00200000 </v>
   <v>       0.00200000 </v>
   <v>       0.00200000 </v>
   <v>       0.00200000 </v>
   <v>       0.00200000 </v>
   <v>       0.00200000 </v>
   <v>       0.00200000 </v>
   <v>       0.00200000 </v>
   <v>       0.00200000 </v>
   <v>       0.00200000 </v>
   <v>       0.00200000 </v>
   <v>       0.00200000 </v>
   <v>       0.00200000 </v>
   <v>       0.00200000 </v>
   <v>       0.00200000 </v>
   <v>       0.00200000 </v>
   <v>       0.00200000 </v>
   <v>       0.00200000 </v>
   <v>       0.00200000 </v>
   <v>       0.00200000 </v>
   <v>       0.00200000 </v>
   <v>       0.00200000 </v>
   <v>       0.00200000 </v>
   <v>       0.00200000 </v>
   <v>       0.00200000 </v>
   <v>       0.00200000 </v>
   <v>       0.00200000 </v>
   <v>       0.00200000 </v>
   <v>       0.00200000 </v>
   <v>       0.00200000 </v>
   <v>       0.00200000 </v>
   <v>       0.00200000 </v>
   <v>       0.00200000 </v>
   <v>       0.00200000 </v>
   <v>       0.00200000 </v>
   <v>       0.00200000 </v>
   <v>       0.00200000 </v>
   <v>       0.00200000 </v>
   <v>       0.00200000 </v>
   <v>       0.00200000 </v>
   <v>       0.00200000 </v>
   <v>       0.00200000 </v>
   <v>       0.00200000 </v>
   <v>       0.00200000 </v>
   <v>       0.00200000 </v>
   <v>       0.00200000 </v>
   <v>       0.00200000 </v>
   <v>       0.00200000 </v>
   <v>       0.00200000 </v>
   <v>       0.00200000 </v>
   <v>       0.00200000 </v>
   <v>       0.00200000 </v>
   <v>       0.00200000 </v>
   <v>       0.00200000 </v>
   <v>       0.00200000 </v>
   <v>       0.00200000 </v>
   <v>       0.00200000 </v>
   <v>       0.00200000 </v>
   <v>       0.00200000 </v>
   <v>       0.00200000 </v>
   <v>       0.00200000 </v>
   <v>       0.00200000 </v>
   <v>       0.00200000 </v>
   <v>       0.00200000 </v>
   <v>       0.00200000 </v>
   <v>       0.00200000 </v>
   <v>       0.00200000 </v>
   <v>       0.00200000 </v>
   <v>       0.00200000 </v>
   <v>       0.00200000 </v>
   <v>       0.00200000 </v>
   <v>       0.00200000 </v>
   <v>       0.00200000 </v>
   <v>       0.00200000 </v>
   <v>       0.00200000 </v>
   <v>       0.00200000 </v>
   <v>       0.00200000 </v>
   <v>       0.00200000 </v>
   <v>       0.00200000 </v>
   <v>       0.00200000 </v>
   <v>       0.00200000 </v>
   <v>       0.00200000 </v>
   <v>       0.00200000 </v>
   <v>       0.00200000 </v>
   <v>       0.00100000 </v>
   <v>       0.00100000 </v>
   <v>       0.00100000 </v>
   <v>       0.00100000 </v>
   <v>       0.00100000 </v>
   <v>       0.00100000 </v>
   <v>       0.00100000 </v>
   <v>       0.00100000 </v>
   <v>       0.00100000 </v>
   <v>       0.00100000 </v>
   <v>       0.00200000 </v>
   <v>       0.00200000 </v>
   <v>       0.00200000 </v>
   <v>       0.00200000 </v>
   <v>       0.00200000 </v>
   <v>       0.00200000 </v>
   <v>       0.00200000 </v>
   <v>       0.00200000 </v>
   <v>       0.00200000 </v>
   <v>       0.00200000 </v>
   <v>       0.00200000 </v>
   <v>       0.00200000 </v>
   <v>       0.00200000 </v>
   <v>       0.00200000 </v>
   <v>       0.00200000 </v>
   <v>       0.00200000 </v>
   <v>       0.00200000 </v>
   <v>       0.00200000 </v>
   <v>       0.00200000 </v>
   <v>       0.00200000 </v>
   <v>       0.00200000 </v>
   <v>       0.00200000 </v>
   <v>       0.00200000 </v>
   <v>       0.00200000 </v>
   <v>       0.00200000 </v>
   <v>       0.00200000 </v>
   <v>       0.00200000 </v>
   <v>       0.00200000 </v>
   <v>       0.00200000 </v>
   <v>       0.00200000 </v>
   <v>       0.00200000 </v>
   <v>       0.00200000 </v>
   <v>       0.00200000 </v>
   <v>       0.00200000 </v>
   <v>       0.00200000 </v>
   <v>       0.00200000 </v>
   <v>       0.00200000 </v>
   <v>       0.00200000 </v>
   <v>       0.00200000 </v>
   <v>       0.00200000 </v>
   <v>       0.00200000 </v>
   <v>       0.00200000 </v>
   <v>       0.00200000 </v>
   <v>       0.00200000 </v>
   <v>       0.00200000 </v>
   <v>       0.00200000 </v>
   <v>       0.00200000 </v>
   <v>       0.00200000 </v>
   <v>       0.00200000 </v>
   <v>       0.00200000 </v>
   <v>       0.00200000 </v>
   <v>       0.00200000 </v>
   <v>       0.00200000 </v>
   <v>       0.00200000 </v>
   <v>       0.00200000 </v>
   <v>       0.00200000 </v>
   <v>       0.00200000 </v>
   <v>       0.00200000 </v>
   <v>       0.00200000 </v>
   <v>       0.00200000 </v>
   <v>       0.00200000 </v>
   <v>       0.00200000 </v>
   <v>       0.00200000 </v>
   <v>       0.00200000 </v>
   <v>       0.00200000 </v>
   <v>       0.00200000 </v>
   <v>       0.00200000 </v>
   <v>       0.00200000 </v>
   <v>       0.00200000 </v>
   <v>       0.00200000 </v>
   <v>       0.00200000 </v>
   <v>       0.00200000 </v>
   <v>       0.00200000 </v>
   <v>       0.00200000 </v>
   <v>       0.00200000 </v>
   <v>       0.00200000 </v>
   <v>       0.00200000 </v>
   <v>       0.00200000 </v>
   <v>       0.00200000 </v>
   <v>       0.00200000 </v>
   <v>       0.00100000 </v>
   <v>       0.00100000 </v>
   <v>       0.00100000 </v>
   <v>       0.00100000 </v>
   <v>       0.00100000 </v>
   <v>       0.00100000 </v>
   <v>       0.00100000 </v>
   <v>       0.00100000 </v>
   <v>       0.00100000 </v>
   <v>       0.00100000 </v>
   <v>       0.00200000 </v>
   <v>       0.00200000 </v>
   <v>       0.00200000 </v>
   <v>       0.00200000 </v>
   <v>       0.00200000 </v>
   <v>       0.00200000 </v>
   <v>       0.00200000 </v>
   <v>       0.00200000 </v>
   <v>       0.00200000 </v>
   <v>       0.00200000 </v>
   <v>       0.00200000 </v>
   <v>       0.00200000 </v>
   <v>       0.00200000 </v>
   <v>       0.00200000 </v>
   <v>       0.00200000 </v>
   <v>       0.00200000 </v>
   <v>       0.00200000 </v>
   <v>       0.00200000 </v>
   <v>       0.00200000 </v>
   <v>       0.00200000 </v>
   <v>       0.00200000 </v>
   <v>       0.00200000 </v>
   <v>       0.00200000 </v>
   <v>       0.00200000 </v>
   <v>       0.00200000 </v>
   <v>       0.00200000 </v>
   <v>       0.00200000 </v>
   <v>       0.00200000 </v>
   <v>       0.00200000 </v>
   <v>       0.00200000 </v>
   <v>       0.00200000 </v>
   <v>       0.00200000 </v>
   <v>       0.00200000 </v>
   <v>       0.00200000 </v>
   <v>       0.00200000 </v>
   <v>       0.00200000 </v>
   <v>       0.00200000 </v>
   <v>       0.00200000 </v>
   <v>       0.00200000 </v>
   <v>       0.00200000 </v>
   <v>       0.00200000 </v>
   <v>       0.00200000 </v>
   <v>       0.00200000 </v>
   <v>       0.00200000 </v>
   <v>       0.00200000 </v>
   <v>       0.00200000 </v>
   <v>       0.00200000 </v>
   <v>       0.00200000 </v>
   <v>       0.00200000 </v>
   <v>       0.00200000 </v>
   <v>       0.00200000 </v>
   <v>       0.00200000 </v>
   <v>       0.00200000 </v>
   <v>       0.00200000 </v>
   <v>       0.00200000 </v>
   <v>       0.00200000 </v>
   <v>       0.00200000 </v>
   <v>       0.00200000 </v>
   <v>       0.00200000 </v>
   <v>       0.00200000 </v>
   <v>       0.00200000 </v>
   <v>       0.00200000 </v>
   <v>       0.00200000 </v>
   <v>       0.00200000 </v>
   <v>       0.00200000 </v>
   <v>       0.00200000 </v>
   <v>       0.00200000 </v>
   <v>       0.00200000 </v>
   <v>       0.00200000 </v>
   <v>       0.00200000 </v>
   <v>       0.00100000 </v>
   <v>       0.00100000 </v>
   <v>       0.00100000 </v>
   <v>       0.00100000 </v>
   <v>       0.00100000 </v>
   <v>       0.00100000 </v>
   <v>       0.00100000 </v>
   <v>       0.00100000 </v>
   <v>       0.00100000 </v>
   <v>       0.00100000 </v>
   <v>       0.00200000 </v>
   <v>       0.00200000 </v>
   <v>       0.00200000 </v>
   <v>       0.00200000 </v>
   <v>       0.00200000 </v>
   <v>       0.00200000 </v>
   <v>       0.00200000 </v>
   <v>       0.00200000 </v>
   <v>       0.00200000 </v>
   <v>       0.00200000 </v>
   <v>       0.00200000 </v>
   <v>       0.00200000 </v>
   <v>       0.00200000 </v>
   <v>       0.00200000 </v>
   <v>       0.00200000 </v>
   <v>       0.00200000 </v>
   <v>       0.00200000 </v>
   <v>       0.00200000 </v>
   <v>       0.00200000 </v>
   <v>       0.00200000 </v>
   <v>       0.00200000 </v>
   <v>       0.00200000 </v>
   <v>       0.00200000 </v>
   <v>       0.00200000 </v>
   <v>       0.00200000 </v>
   <v>       0.00200000 </v>
   <v>       0.00200000 </v>
   <v>       0.00200000 </v>
   <v>       0.00200000 </v>
   <v>       0.00200000 </v>
   <v>       0.00200000 </v>
   <v>       0.00200000 </v>
   <v>       0.00200000 </v>
   <v>       0.00200000 </v>
   <v>       0.00200000 </v>
   <v>       0.00200000 </v>
   <v>       0.00200000 </v>
   <v>       0.00200000 </v>
   <v>       0.00200000 </v>
   <v>       0.00200000 </v>
   <v>       0.00200000 </v>
   <v>       0.00200000 </v>
   <v>       0.00200000 </v>
   <v>       0.00200000 </v>
   <v>       0.00200000 </v>
   <v>       0.00200000 </v>
   <v>       0.00200000 </v>
   <v>       0.00200000 </v>
   <v>       0.00200000 </v>
   <v>       0.00200000 </v>
   <v>       0.00200000 </v>
   <v>       0.00200000 </v>
   <v>       0.00200000 </v>
   <v>       0.00200000 </v>
   <v>       0.00200000 </v>
   <v>       0.00200000 </v>
   <v>       0.00200000 </v>
   <v>       0.00200000 </v>
   <v>       0.00200000 </v>
   <v>       0.00200000 </v>
   <v>       0.00100000 </v>
   <v>       0.00100000 </v>
   <v>       0.00100000 </v>
   <v>       0.00100000 </v>
   <v>       0.00100000 </v>
   <v>       0.00100000 </v>
   <v>       0.00100000 </v>
   <v>       0.00100000 </v>
   <v>       0.00100000 </v>
   <v>       0.00100000 </v>
   <v>       0.00200000 </v>
   <v>       0.00200000 </v>
   <v>       0.00200000 </v>
   <v>       0.00200000 </v>
   <v>       0.00200000 </v>
   <v>       0.00200000 </v>
   <v>       0.00200000 </v>
   <v>       0.00200000 </v>
   <v>       0.00200000 </v>
   <v>       0.00200000 </v>
   <v>       0.00200000 </v>
   <v>       0.00200000 </v>
   <v>       0.00200000 </v>
   <v>       0.00200000 </v>
   <v>       0.00200000 </v>
   <v>       0.00200000 </v>
   <v>       0.00200000 </v>
   <v>       0.00200000 </v>
   <v>       0.00200000 </v>
   <v>       0.00200000 </v>
   <v>       0.00200000 </v>
   <v>       0.00200000 </v>
   <v>       0.00200000 </v>
   <v>       0.00200000 </v>
   <v>       0.00200000 </v>
   <v>       0.00200000 </v>
   <v>       0.00200000 </v>
   <v>       0.00200000 </v>
   <v>       0.00200000 </v>
   <v>       0.00200000 </v>
   <v>       0.00200000 </v>
   <v>       0.00200000 </v>
   <v>       0.00200000 </v>
   <v>       0.00200000 </v>
   <v>       0.00200000 </v>
   <v>       0.00200000 </v>
   <v>       0.00200000 </v>
   <v>       0.00200000 </v>
   <v>       0.00200000 </v>
   <v>       0.00200000 </v>
   <v>       0.00200000 </v>
   <v>       0.00200000 </v>
   <v>       0.00200000 </v>
   <v>       0.00200000 </v>
   <v>       0.00200000 </v>
   <v>       0.00200000 </v>
   <v>       0.00200000 </v>
   <v>       0.00200000 </v>
   <v>       0.00200000 </v>
   <v>       0.00200000 </v>
   <v>       0.00100000 </v>
   <v>       0.00100000 </v>
   <v>       0.00100000 </v>
   <v>       0.00100000 </v>
   <v>       0.00100000 </v>
   <v>       0.00100000 </v>
   <v>       0.00100000 </v>
   <v>       0.00100000 </v>
   <v>       0.00100000 </v>
   <v>       0.00100000 </v>
   <v>       0.00200000 </v>
   <v>       0.00200000 </v>
   <v>       0.00200000 </v>
   <v>       0.00200000 </v>
   <v>       0.00200000 </v>
   <v>       0.00200000 </v>
   <v>       0.00200000 </v>
   <v>       0.00200000 </v>
   <v>       0.00200000 </v>
   <v>       0.00200000 </v>
   <v>       0.00200000 </v>
   <v>       0.00200000 </v>
   <v>       0.00200000 </v>
   <v>       0.00200000 </v>
   <v>       0.00200000 </v>
   <v>       0.00200000 </v>
   <v>       0.00200000 </v>
   <v>       0.00200000 </v>
   <v>       0.00200000 </v>
   <v>       0.00200000 </v>
   <v>       0.00200000 </v>
   <v>       0.00200000 </v>
   <v>       0.00200000 </v>
   <v>       0.00200000 </v>
   <v>       0.00200000 </v>
   <v>       0.00200000 </v>
   <v>       0.00200000 </v>
   <v>       0.00200000 </v>
   <v>       0.00200000 </v>
   <v>       0.00200000 </v>
   <v>       0.00200000 </v>
   <v>       0.00200000 </v>
   <v>       0.00200000 </v>
   <v>       0.00200000 </v>
   <v>       0.00200000 </v>
   <v>       0.00200000 </v>
   <v>       0.00200000 </v>
   <v>       0.00200000 </v>
   <v>       0.00200000 </v>
   <v>       0.00200000 </v>
   <v>       0.00100000 </v>
   <v>       0.00100000 </v>
   <v>       0.00100000 </v>
   <v>       0.00100000 </v>
   <v>       0.00100000 </v>
   <v>       0.00100000 </v>
   <v>       0.00100000 </v>
   <v>       0.00100000 </v>
   <v>       0.00100000 </v>
   <v>       0.00100000 </v>
   <v>       0.00200000 </v>
   <v>       0.00200000 </v>
   <v>       0.00200000 </v>
   <v>       0.00200000 </v>
   <v>       0.00200000 </v>
   <v>       0.00200000 </v>
   <v>       0.00200000 </v>
   <v>       0.00200000 </v>
   <v>       0.00200000 </v>
   <v>       0.00200000 </v>
   <v>       0.00200000 </v>
   <v>       0.00200000 </v>
   <v>       0.00200000 </v>
   <v>       0.00200000 </v>
   <v>       0.00200000 </v>
   <v>       0.00200000 </v>
   <v>       0.00200000 </v>
   <v>       0.00200000 </v>
   <v>       0.00200000 </v>
   <v>       0.00200000 </v>
   <v>       0.00200000 </v>
   <v>       0.00200000 </v>
   <v>       0.00200000 </v>
   <v>       0.00200000 </v>
   <v>       0.00200000 </v>
   <v>       0.00200000 </v>
   <v>       0.00200000 </v>
   <v>       0.00200000 </v>
   <v>       0.00200000 </v>
   <v>       0.00200000 </v>
   <v>       0.00100000 </v>
   <v>       0.00100000 </v>
   <v>       0.00100000 </v>
   <v>       0.00100000 </v>
   <v>       0.00100000 </v>
   <v>       0.00100000 </v>
   <v>       0.00100000 </v>
   <v>       0.00100000 </v>
   <v>       0.00100000 </v>
   <v>       0.00100000 </v>
   <v>       0.00200000 </v>
   <v>       0.00200000 </v>
   <v>       0.00200000 </v>
   <v>       0.00200000 </v>
   <v>       0.00200000 </v>
   <v>       0.00200000 </v>
   <v>       0.00200000 </v>
   <v>       0.00200000 </v>
   <v>       0.00200000 </v>
   <v>       0.00200000 </v>
   <v>       0.00200000 </v>
   <v>       0.00200000 </v>
   <v>       0.00200000 </v>
   <v>       0.00200000 </v>
   <v>       0.00200000 </v>
   <v>       0.00200000 </v>
   <v>       0.00200000 </v>
   <v>       0.00200000 </v>
   <v>       0.00200000 </v>
   <v>       0.00200000 </v>
   <v>       0.00100000 </v>
   <v>       0.00100000 </v>
   <v>       0.00100000 </v>
   <v>       0.00100000 </v>
   <v>       0.00100000 </v>
   <v>       0.00100000 </v>
   <v>       0.00100000 </v>
   <v>       0.00100000 </v>
   <v>       0.00100000 </v>
   <v>       0.00100000 </v>
   <v>       0.00200000 </v>
   <v>       0.00200000 </v>
   <v>       0.00200000 </v>
   <v>       0.00200000 </v>
   <v>       0.00200000 </v>
   <v>       0.00200000 </v>
   <v>       0.00200000 </v>
   <v>       0.00200000 </v>
   <v>       0.00200000 </v>
   <v>       0.00200000 </v>
   <v>       0.00100000 </v>
   <v>       0.00100000 </v>
   <v>       0.00100000 </v>
   <v>       0.00100000 </v>
   <v>       0.00100000 </v>
   <v>       0.00100000 </v>
   <v>       0.00100000 </v>
   <v>       0.00100000 </v>
   <v>       0.00100000 </v>
   <v>       0.00100000 </v>
  </varray>
 </kpoints>
 <parameters>
  <separator name="general" >
   <i type="string" name="SYSTEM">Al fcc relaxation</i>
   <i type="logical" name="LCOMPAT"> F  </i>
  </separator>
  <separator name="electronic" >
   <i type="string" name="PREC">accura</i>
   <i name="ENMAX">    400.00000000</i>
   <i name="ENAUG">    291.05200000</i>
   <i name="EDIFF">      0.00000100</i>
   <i type="int" name="IALGO">    68</i>
   <i type="int" name="IWAVPR">    11</i>
   <i type="int" name="NBANDS">    14</i>
   <i type="int" name="NBANDSLOW">    -1</i>
   <i type="int" name="NBANDSHIGH">    -1</i>
   <i name="NELECT">     12.00000000</i>
   <i type="int" name="TURBO">     0</i>
   <i type="int" name="IRESTART">     0</i>
   <i type="int" name="NREBOOT">     0</i>
   <i type="int" name="NMIN">     0</i>
   <i name="EREF">      0.00000000</i>
   <separator name="electronic smearing" >
    <i type="int" name="ISMEAR">     1</i>
    <i name="SIGMA">      0.20000000</i>
    <i name="KSPACING">      0.08000000</i>
    <i type="logical" name="KGAMMA"> T  </i>
    <i type="logical" name="KBLOWUP"> T  </i>
   </separator>
   <separator name="electronic projectors" >
    <i type="logical" name="LREAL"> T  </i>
    <v name="ROPT">     -0.00025000</v>
    <i type="int" name="LMAXPAW">  -100</i>
    <i type="int" name="LMAXMIX">     2</i>
    <i type="logical" name="NLSPLINE"> F  </i>
   </separator>
   <separator name="electronic startup" >
    <i type="int" name="ISTART">     0</i>
    <i type="int" name="ICHARG">     2</i>
    <i type="int" name="INIWAV">     1</i>
   </separator>
   <separator name="electronic spin" >
    <i type="int" name="ISPIN">     1</i>
    <i type="logical" name="LNONCOLLINEAR"> F  </i>
    <v name="MAGMOM">      1.00000000      1.00000000      1.00000000      1.00000000</v>
    <i name="NUPDOWN">     -1.00000000</i>
    <i type="logical" name="LSORBIT"> F  </i>
    <v name="SAXIS">      0.00000000      0.00000000      1.00000000</v>
    <i type="logical" name="LSPIRAL"> F  </i>
    <v name="QSPIRAL">      0.00000000      0.00000000      0.00000000</v>
    <i type="logical" name="LZEROZ"> F  </i>
   </separator>
   <separator name="electronic exchange-correlation" >
    <i type="logical" name="LASPH"> F  </i>
    <i type="logical" name="LMETAGGA"> F  </i>
   </separator>
   <separator name="electronic convergence" >
    <i type="int" name="NELM">    60</i>
    <i type="int" name="NELMDL">    -5</i>
    <i type="int" name="NELMIN">     4</i>
    <i name="ENINI">    400.00000000</i>
    <separator name="electronic convergence detail" >
     <i type="logical" name="LDIAG"> T  </i>
     <i type="logical" name="LSUBROT"> F  </i>
     <i name="WEIMIN">      0.00100000</i>
     <i name="EBREAK">      0.00000002</i>
     <i name="DEPER">      0.30000000</i>
     <i type="int" name="NRMM">     4</i>
     <i name="TIME">      0.40000000</i>
    </separator>
   </separator>
   <separator name="electronic mixer" >
    <i name="AMIX">      0.40000000</i>
    <i name="BMIX">      1.00000000</i>
    <i name="AMIN">      0.10000000</i>
    <i name="AMIX_MAG">      1.60000000</i>
    <i name="BMIX_MAG">      1.00000000</i>
    <separator name="electronic mixer details" >
     <i type="int" name="IMIX">     4</i>
     <i type="logical" name="MIXFIRST"> F  </i>
     <i type="int" name="MAXMIX">   -45</i>
     <i name="WC">    100.00000000</i>
     <i type="int" name="INIMIX">     1</i>
     <i type="int" name="MIXPRE">     1</i>
     <i type="int" name="MREMOVE">     5</i>
    </separator>
   </separator>
   <separator name="electronic dipolcorrection" >
    <i type="logical" name="LDIPOL"> F  </i>
    <i type="logical" name="LMONO"> F  </i>
    <i type="int" name="IDIPOL">     0</i>
    <i name="EPSILON">      1.00000000</i>
    <v name="DIPOL">   -100.00000000   -100.00000000   -100.00000000</v>
    <i name="EFIELD">      0.00000000</i>
   </separator>
  </separator>
  <separator name="grids" >
   <i type="int" name="NGX">    28</i>
   <i type="int" name="NGY">    28</i>
   <i type="int" name="NGZ">    28</i>
   <i type="int" name="NGXF">    56</i>
   <i type="int" name="NGYF">    56</i>
   <i type="int" name="NGZF">    56</i>
   <i type="logical" name="ADDGRID"> F  </i>
  </separator>
  <separator name="ionic" >
   <i type="int" name="NSW">   100</i>
   <i type="int" name="IBRION">     2</i>
   <i type="int" name="MDALGO">     0</i>
   <i type="int" name="ISIF">     2</i>
   <i name="PSTRESS">      0.00000000</i>
   <i name="EDIFFG">      0.00001000</i>
   <i type="int" name="NFREE">     1</i>
   <i name="POTIM">      0.50000000</i>
   <i name="SMASS">     -3.00000000</i>
   <i name="SCALEE">      1.00000000</i>
  </separator>
  <separator name="ionic md" >
   <i name="TEBEG">      0.00010000</i>
   <i name="TEEND">      0.00010000</i>
   <i type="int" name="NBLOCK">     1</i>
   <i type="int" name="KBLOCK">   100</i>
   <i type="int" name="NPACO">   256</i>
   <i name="APACO">     10.00000000</i>
  </separator>
  <separator name="symmetry" >
   <i type="int" name="ISYM">     2</i>
   <i name="SYMPREC">      0.00001000</i>
  </separator>
  <separator name="dos" >
   <i type="int" name="LORBIT">     0</i>
   <v name="RWIGS">     -1.00000000</v>
   <i type="int" name="NEDOS">   301</i>
   <i name="EMIN">     10.00000000</i>
   <i name="EMAX">    -10.00000000</i>
   <i name="EFERMI">      0.00000000</i>
  </separator>
  <separator name="writing" >
   <i type="int" name="NWRITE">     2</i>
   <i type="logical" name="LWAVE"> F  </i>
   <i type="logical" name="LDOWNSAMPLE"> F  </i>
   <i type="logical" name="LCHARG"> F  </i>
   <i type="logical" name="LPARD"> F  </i>
   <i type="logical" name="LVTOT"> F  </i>
   <i type="logical" name="LVHAR"> F  </i>
   <i type="logical" name="LELF"> F  </i>
   <i type="logical" name="LOPTICS"> F  </i>
   <v name="STM">      0.00000000      0.00000000      0.00000000      0.00000000      0.00000000      0.00000000      0.00000000</v>
  </separator>
  <separator name="performance" >
   <i type="int" name="NPAR">    14</i>
   <i type="int" name="NSIM">     4</i>
   <i type="int" name="NBLK">    -1</i>
   <i type="logical" name="LPLANE"> T  </i>
   <i type="logical" name="LSCALAPACK"> T  </i>
   <i type="logical" name="LSCAAWARE"> F  </i>
   <i type="logical" name="LSCALU"> F  </i>
   <i type="logical" name="LASYNC"> F  </i>
   <i type="logical" name="LORBITALREAL"> F  </i>
  </separator>
  <separator name="miscellaneous" >
   <i type="int" name="IDIOT">     3</i>
   <i type="int" name="PHON_NSTRUCT">    -1</i>
   <i type="logical" name="LMUSIC"> F  </i>
   <v name="POMASS">     26.98100000</v>
   <v name="DARWINR">      0.00000000</v>
   <v name="DARWINV">      1.00000000</v>
   <i type="logical" name="LCORR"> T  </i>
  </separator>
  <i type="logical" name="GGA_COMPAT"> T  </i>
  <i type="logical" name="LBERRY"> F  </i>
  <i type="int" name="ICORELEVEL">     0</i>
  <i type="logical" name="LDAU"> F  </i>
  <i type="int" name="I_CONSTRAINED_M">     0</i>
  <separator name="electronic exchange-correlation" >
   <i type="string" name="GGA">--</i>
   <i type="int" name="VOSKOWN">     0</i>
   <i type="logical" name="LHFCALC"> F  </i>
   <i type="string" name="PRECFOCK"></i>
   <i type="logical" name="LSYMGRAD"> F  </i>
   <i type="logical" name="LHFONE"> F  </i>
   <i type="logical" name="LRHFCALC"> F  </i>
   <i type="logical" name="LTHOMAS"> F  </i>
   <i type="logical" name="LMODELHF"> F  </i>
   <i type="logical" name="LFOCKACE"> F  </i>
   <i name="ENCUT4O">     -1.00000000</i>
   <i type="int" name="EXXOEP">     0</i>
   <i type="int" name="FOURORBIT">     0</i>
   <i name="AEXX">      0.00000000</i>
   <i name="HFALPHA">      0.00000000</i>
   <i name="MCALPHA">      0.00000000</i>
   <i name="ALDAX">      1.00000000</i>
   <i name="AGGAX">      1.00000000</i>
   <i name="ALDAC">      1.00000000</i>
   <i name="AGGAC">      1.00000000</i>
   <i type="int" name="NKREDX">     1</i>
   <i type="int" name="NKREDY">     1</i>
   <i type="int" name="NKREDZ">     1</i>
   <i type="logical" name="SHIFTRED"> F  </i>
   <i type="logical" name="ODDONLY"> F  </i>
   <i type="logical" name="EVENONLY"> F  </i>
   <i type="int" name="LMAXFOCK">     0</i>
   <i type="int" name="NMAXFOCKAE">     0</i>
   <i type="logical" name="LFOCKAEDFT"> F  </i>
   <i name="HFSCREEN">      0.00000000</i>
   <i name="HFSCREENC">      0.00000000</i>
   <i type="int" name="NBANDSGWLOW">     0</i>
  </separator>
  <separator name="vdW DFT" >
   <i type="logical" name="LUSE_VDW"> F  </i>
   <i type="int" name="IVDW_NL">     1</i>
   <i type="logical" name="LSPIN_VDW"> F  </i>
   <i name="Zab_VDW">     -0.84910000</i>
   <i name="PARAM1">      0.12340000</i>
   <i name="PARAM2">      1.00000000</i>
   <i name="PARAM3">      0.00000000</i>
  </separator>
  <separator name="model GW" >
   <i type="int" name="MODEL_GW">     0</i>
   <i name="MODEL_EPS0">      9.78370112</i>
   <i name="MODEL_ALPHA">      1.00000000</i>
  </separator>
  <separator name="linear response parameters" >
   <i type="logical" name="LEPSILON"> F  </i>
   <i type="logical" name="LRPA"> F  </i>
   <i type="logical" name="LNABLA"> F  </i>
   <i type="logical" name="LVEL"> F  </i>
   <i name="CSHIFT">      0.10000000</i>
   <i name="OMEGAMAX">     -1.00000000</i>
   <i name="DEG_THRESHOLD">      0.00200000</i>
   <i name="RTIME">     -0.10000000</i>
   <i name="WPLASMAI">      0.00000000</i>
   <v name="DFIELD">      0.00000000      0.00000000      0.00000000</v>
   <v name="WPLASMA">      0.00000000      0.00000000      0.00000000      0.00000000      0.00000000      0.00000000      0.00000000      0.00000000      0.00000000</v>
  </separator>
  <separator name="orbital magnetization" >
   <i type="logical" name="NUCIND"> F  </i>
   <v name="MAGPOS">      0.00000000      0.00000000      0.00000000</v>
   <i type="logical" name="LNICSALL"> T  </i>
   <i type="logical" name="ORBITALMAG"> F  </i>
   <i type="logical" name="LMAGBLOCH"> F  </i>
   <i type="logical" name="LCHIMAG"> F  </i>
   <i type="logical" name="LGAUGE"> T  </i>
   <i type="int" name="MAGATOM">     0</i>
   <v name="MAGDIPOL">      0.00000000      0.00000000      0.00000000</v>
   <v name="AVECCONST">      0.00000000      0.00000000      0.00000000</v>
  </separator>
  <separator name="response functions" >
   <i type="logical" name="LALL_IN_ONE"> F  </i>
   <i type="int" name="IALL_IN_ONE">    -1</i>
   <i type="int" name="NBANDS_WAVE">    -1</i>
   <i type="logical" name="LFINITE_TEMPERATURE"> F  </i>
   <i type="logical" name="LADDER"> F  </i>
   <i type="logical" name="LRPAFORCE"> F  </i>
   <i type="logical" name="LFXC"> F  </i>
   <i type="logical" name="LHARTREE"> T  </i>
   <i type="int" name="IBSE">     0</i>
   <v type="int" name="KPOINT">    -1     0     0     0</v>
   <i type="logical" name="LTCTC"> F  </i>
   <i type="logical" name="LTCTE"> F  </i>
   <i type="logical" name="LTETE"> F  </i>
   <i type="logical" name="LTRIPLET"> F  </i>
   <i type="logical" name="LFXCEPS"> F  </i>
   <i type="logical" name="LFXHEG"> F  </i>
   <i type="int" name="NATURALO">     2</i>
   <i type="logical" name="LHOLEGF"> F  </i>
   <i type="logical" name="L2ORDER"> F  </i>
   <i type="logical" name="LDMP1"> F  </i>
   <i type="logical" name="LMP2LT"> F  </i>
   <i type="logical" name="LSMP2LT"> F  </i>
   <i type="logical" name="LGWLF"> F  </i>
   <i name="ENCUTGW">     -1.60000002</i>
   <i name="ENCUTGWSOFT">     -1.60000002</i>
   <i name="ENCUTLF">     -1.00000000</i>
   <i type="logical" name="LESF_SPLINES"> F  </i>
   <i type="int" name="LMAXMP2">    -1</i>
   <i name="SCISSOR">      0.00000000</i>
   <i type="int" name="NOMEGA">     0</i>
   <i type="int" name="NOMEGAR">     0</i>
   <i type="int" name="NBANDSGW">    -1</i>
   <i type="int" name="NBANDSO">    -1</i>
   <i type="int" name="NBANDSV">    -1</i>
   <i type="int" name="NELMGW">     1</i>
   <i type="int" name="NELMHF">     1</i>
   <i type="int" name="DIM">     3</i>
   <i type="int" name="IESPILON">     4</i>
   <i type="int" name="ANTIRES">     0</i>
   <i name="OMEGAMAX">    -30.00000000</i>
   <i name="OMEGAMIN">    -30.00000000</i>
   <i name="OMEGATL">   -200.00000000</i>
   <i type="int" name="OMEGAGRID">     0</i>
   <i name="CSHIFT">     -0.10000000</i>
   <i type="logical" name="LSELFENERGY"> F  </i>
   <i type="logical" name="LSPECTRAL"> F  </i>
   <i type="logical" name="LSPECTRALGW"> F  </i>
   <i type="logical" name="LSINGLES"> F  </i>
   <i type="logical" name="LFERMIGW"> F  </i>
   <i type="logical" name="ODDONLYGW"> F  </i>
   <i type="logical" name="EVENONLYGW"> F  </i>
   <i type="int" name="NKREDLFX">     1</i>
   <i type="int" name="NKREDLFY">     1</i>
   <i type="int" name="NKREDLFZ">     1</i>
   <i type="int" name="MAXMEM">  2800</i>
   <i type="int" name="TELESCOPE">     0</i>
   <i type="int" name="NTAUPAR">    -1</i>
   <i type="int" name="NOMEGAPAR">    -1</i>
   <i name="DAMP_NEWTON">      0.80000001</i>
   <i name="LAMBDA">      1.00000000</i>
  </separator>
  <separator name="External order field" >
   <i name="OFIELD_KAPPA">      0.00000000</i>
   <v name="OFIELD_K">      0.00000000      0.00000000      0.00000000</v>
   <i name="OFIELD_Q6_NEAR">      0.00000000</i>
   <i name="OFIELD_Q6_FAR">      0.00000000</i>
   <i name="OFIELD_A">      0.00000000</i>
  </separator>
  <separator name="optional k-points parameters" >
   <i type="int" name="KPOINTS_OPT_MODE">     1</i>
   <i type="logical" name="LKPOINTS_OPT"> F  </i>
  </separator>
 </parameters>
 <atominfo>
  <atoms>       4 </atoms>
  <types>       1 </types>
  <array name="atoms" >
   <dimension dim="1">ion</dimension>
   <field type="string">element</field>
   <field type="int">atomtype</field>
   <set>
    <rc><c>Al</c><c>   1</c></rc>
    <rc><c>Al</c><c>   1</c></rc>
    <rc><c>Al</c><c>   1</c></rc>
    <rc><c>Al</c><c>   1</c></rc>
   </set>
  </array>
  <array name="atomtypes" >
   <dimension dim="1">type</dimension>
   <field type="int">atomspertype</field>
   <field type="string">element</field>
   <field>mass</field>
   <field>valence</field>
   <field type="string">pseudopotential</field>
   <set>
    <rc><c>   4</c><c>Al</c><c>     26.98100000</c><c>      3.00000000</c><c>  PAW_PBE Al 04Jan2001                  </c></rc>
   </set>
  </array>
 </atominfo>
 <structure name="initialpos" >
  <crystal>
   <varray name="basis" >
    <v>       3.99833640       0.00000000       0.00000000 </v>
    <v>      -0.00000000       4.03892969       0.00000000 </v>
    <v>       0.00000000       0.00000000       4.03892969 </v>
   </varray>
   <i name="volume">     65.22467411 </i>
   <varray name="rec_basis" >
    <v>       0.25010402       0.00000000      -0.00000000 </v>
    <v>       0.00000000       0.24759035      -0.00000000 </v>
    <v>       0.00000000      -0.00000000       0.24759035 </v>
   </varray>
  </crystal>
  <varray name="positions" >
   <v>       0.00000000       0.00000000       0.00000000 </v>
   <v>       0.00000000       0.50000000       0.50000000 </v>
   <v>       0.50000000       0.00000000       0.50000000 </v>
   <v>       0.50000000       0.50000000       0.00000000 </v>
  </varray>
 </structure>
 <calculation>
  <scstep>
   <time name="dav">   29.14   14.61</time>
   <time name="total">   29.19   14.64</time>
   <energy>
    <i name="alphaZ">     -0.82393602 </i>
    <i name="ewald">   -295.22303802 </i>
    <i name="hartreedc">     -0.38847369 </i>
    <i name="XCdc">   -104.87368631 </i>
    <i name="pawpsdc">    264.80062850 </i>
    <i name="pawaedc">   -136.98248303 </i>
    <i name="eentropy">      0.00014106 </i>
    <i name="bandstr">     57.02769517 </i>
    <i name="atom">    214.15261729 </i>
    <i name="e_fr_energy">     -2.31053505 </i>
    <i name="e_wo_entrp">     -2.31067610 </i>
    <i name="e_0_energy">     -2.31058206 </i>
   </energy>
  </scstep>
  <scstep>
   <time name="dav">   40.70   20.38</time>
   <time name="total">   40.71   20.39</time>
   <energy>
    <i name="e_fr_energy">    -15.00222699 </i>
    <i name="e_wo_entrp">    -15.00390114 </i>
    <i name="e_0_energy">    -15.00278504 </i>
   </energy>
  </scstep>
  <scstep>
   <time name="dav">   35.50   17.77</time>
   <time name="total">   35.52   17.77</time>
   <energy>
    <i name="e_fr_energy">    -15.07461774 </i>
    <i name="e_wo_entrp">    -15.07630438 </i>
    <i name="e_0_energy">    -15.07517996 </i>
   </energy>
  </scstep>
  <scstep>
   <time name="dav">   45.22   22.62</time>
   <time name="total">   45.23   22.63</time>
   <energy>
    <i name="e_fr_energy">    -15.07478328 </i>
    <i name="e_wo_entrp">    -15.07647059 </i>
    <i name="e_0_energy">    -15.07534572 </i>
   </energy>
  </scstep>
  <scstep>
   <time name="dav">   35.80   17.91</time>
   <time name="total">   36.67   18.37</time>
   <energy>
    <i name="e_fr_energy">    -15.07478336 </i>
    <i name="e_wo_entrp">    -15.07647067 </i>
    <i name="e_0_energy">    -15.07534580 </i>
   </energy>
  </scstep>
  <scstep>
   <time name="diag">    4.56    2.28</time>
   <time name="diis">    8.73    4.64</time>
   <time name="orth">    0.30    0.15</time>
   <time name="total">   14.51    7.55</time>
   <energy>
    <i name="e_fr_energy">    -15.02233799 </i>
    <i name="e_wo_entrp">    -15.02405996 </i>
    <i name="e_0_energy">    -15.02291198 </i>
   </energy>
  </scstep>
  <scstep>
   <time name="diag">    4.31    2.15</time>
   <time name="diis">    8.64    4.53</time>
   <time name="orth">    0.30    0.15</time>
   <time name="total">   14.17    7.32</time>
   <energy>
    <i name="e_fr_energy">    -14.98397349 </i>
    <i name="e_wo_entrp">    -14.98573064 </i>
    <i name="e_0_energy">    -14.98455921 </i>
   </energy>
  </scstep>
  <scstep>
   <time name="diag">    4.46    2.26</time>
   <time name="diis">    8.79    4.67</time>
   <time name="orth">    0.33    0.17</time>
   <time name="total">   14.51    7.58</time>
   <energy>
    <i name="e_fr_energy">    -14.98394259 </i>
    <i name="e_wo_entrp">    -14.98569979 </i>
    <i name="e_0_energy">    -14.98452832 </i>
   </energy>
  </scstep>
  <scstep>
   <time name="diag">    4.32    2.16</time>
   <time name="diis">    8.78    4.67</time>
   <time name="orth">    0.32    0.16</time>
   <time name="total">   14.35    7.48</time>
   <energy>
    <i name="e_fr_energy">    -14.98394836 </i>
    <i name="e_wo_entrp">    -14.98570582 </i>
    <i name="e_0_energy">    -14.98453418 </i>
   </energy>
  </scstep>
  <scstep>
   <time name="diag">    4.51    2.26</time>
   <time name="diis">    8.74    4.59</time>
   <time name="orth">    0.41    0.21</time>
   <time name="total">   14.58    7.53</time>
   <energy>
    <i name="e_fr_energy">    -14.98394927 </i>
    <i name="e_wo_entrp">    -14.98570672 </i>
    <i name="e_0_energy">    -14.98453509 </i>
   </energy>
  </scstep>
  <scstep>
   <time name="diag">    4.30    2.16</time>
   <time name="diis">    8.41    4.68</time>
   <time name="orth">    0.30    0.15</time>
   <time name="total">   13.93    7.46</time>
   <energy>
    <i name="e_fr_energy">    -14.98394488 </i>
    <i name="e_wo_entrp">    -14.98570240 </i>
    <i name="e_0_energy">    -14.98453072 </i>
   </energy>
  </scstep>
  <scstep>
   <time name="diag">    4.42    2.25</time>
   <time name="diis">    6.83    4.31</time>
   <time name="orth">    0.30    0.15</time>
   <time name="total">   11.61    6.74</time>
   <energy>
    <i name="alphaZ">     -0.82393602 </i>
    <i name="ewald">   -295.22303802 </i>
    <i name="hartreedc">     -0.42524846 </i>
    <i name="XCdc">   -104.42703214 </i>
    <i name="pawpsdc">    574.90350724 </i>
    <i name="pawaedc">   -447.14296057 </i>
    <i name="eentropy">      0.00175751 </i>
    <i name="bandstr">     44.00038842 </i>
    <i name="atom">    214.15261729 </i>
    <i name="e_fr_energy">    -14.98394476 </i>
    <i name="e_wo_entrp">    -14.98570228 </i>
    <i name="e_0_energy">    -14.98453060 </i>
   </energy>
  </scstep>
  <structure>
   <crystal>
    <varray name="basis" >
     <v>       3.99833640       0.00000000       0.00000000 </v>
     <v>      -0.00000000       4.03892969       0.00000000 </v>
     <v>       0.00000000       0.00000000       4.03892969 </v>
    </varray>
    <i name="volume">     65.22467411 </i>
    <varray name="rec_basis" >
     <v>       0.25010402       0.00000000      -0.00000000 </v>
     <v>       0.00000000       0.24759035      -0.00000000 </v>
     <v>       0.00000000      -0.00000000       0.24759035 </v>
    </varray>
   </crystal>
   <varray name="positions" >
    <v>       0.00000000       0.00000000       0.00000000 </v>
    <v>       0.00000000       0.50000000       0.50000000 </v>
    <v>       0.50000000       0.00000000       0.50000000 </v>
    <v>       0.50000000       0.50000000       0.00000000 </v>
   </varray>
  </structure>
  <varray name="forces" >
   <v>      -0.00000000       0.00000000      -0.00000000 </v>
   <v>       0.00000000       0.00000000       0.00000000 </v>
   <v>       0.00000000      -0.00000000      -0.00000000 </v>
   <v>      -0.00000000      -0.00000000       0.00000000 </v>
  </varray>
  <varray name="stress" >
   <v>      14.96221550       0.00000000      -0.00000000 </v>
   <v>       0.00000000       5.23788076       0.00000000 </v>
   <v>      -0.00000000       0.00000000       5.23788076 </v>
  </varray>
  <energy>
   <i name="e_fr_energy">    -14.98394476 </i>
   <i name="e_wo_entrp">    -14.98570228 </i>
   <i name="e_0_energy">    -14.98453060 </i>
  </energy>
  <time name="totalsc">  308.77  157.68</time>
  <eigenvalues>
   <array>
    <dimension dim="1">band</dimension>
    <dimension dim="2">kpoint</dimension>
    <dimension dim="3">spin</dimension>
    <field>eigene</field>
    <field>occ</field>
    <set>
     <set comment="spin 1">
      <set comment="kpoint 1">
       <r>   -3.0752    1.0000 </r>
       <r>    5.0102    1.0000 </r>
       <r>    5.0102    1.0000 </r>
       <r>    5.1584    1.0000 </r>
       <r>    6.5960    1.0000 </r>
       <r>    6.5960    1.0000 </r>
       <r>    6.8046    1.0000 </r>
       <r>   12.8471   -0.0000 </r>
       <r>   12.9856   -0.0000 </r>
       <r>   12.9856   -0.0000 </r>
       <r>   13.6643    0.0000 </r>
       <r>   13.8499    0.0000 </r>
       <r>   13.8499    0.0000 </r>
       <r>   14.0435    0.0000 </r>
      </set>
      <set comment="kpoint 2">
       <r>   -3.0289    1.0000 </r>
       <r>    4.5282    1.0000 </r>
       <r>    5.0529    1.0000 </r>
       <r>    5.0529    1.0000 </r>
       <r>    6.6403    1.0000 </r>
       <r>    6.6403    1.0000 </r>
       <r>    7.5146    1.0000 </r>
       <r>   12.2717   -0.0000 </r>
       <r>   12.2717   -0.0000 </r>
       <r>   12.8904   -0.0000 </r>
       <r>   13.5566   -0.0000 </r>
       <r>   13.5566   -0.0000 </r>
       <r>   13.7036    0.0000 </r>
       <r>   14.0855    0.0000 </r>
      </set>
      <set comment="kpoint 3">
       <r>   -2.9363    1.0000 </r>
       <r>    3.7924    1.0000 </r>
       <r>    5.1381    1.0000 </r>
       <r>    5.1381    1.0000 </r>
       <r>    6.7287    1.0000 </r>
       <r>    6.7287    1.0000 </r>
       <r>    8.4098   -0.0333 </r>
       <r>   11.5264   -0.0000 </r>
       <r>   11.5264   -0.0000 </r>
       <r>   12.9769   -0.0000 </r>
       <r>   13.0473   -0.0000 </r>
       <r>   13.0473   -0.0000 </r>
       <r>   13.7820    0.0000 </r>
       <r>   14.1695    0.0000 </r>
      </set>
      <set comment="kpoint 4">
       <r>   -2.7977    1.0000 </r>
       <r>    3.0630    1.0000 </r>
       <r>    5.2659    1.0000 </r>
       <r>    5.2659    1.0000 </r>
       <r>    6.8607    1.0000 </r>
       <r>    6.8607    1.0000 </r>
       <r>    9.3784   -0.0000 </r>
       <r>   10.8103   -0.0000 </r>
       <r>   10.8103   -0.0000 </r>
       <r>   12.4632   -0.0000 </r>
       <r>   12.4632   -0.0000 </r>
       <r>   13.1065   -0.0000 </r>
       <r>   13.8998    0.0000 </r>
       <r>   14.2955    0.0000 </r>
      </set>
      <set comment="kpoint 5">
       <r>   -2.6130    1.0000 </r>
       <r>    2.3624    1.0000 </r>
       <r>    5.4362    1.0000 </r>
       <r>    5.4362    1.0000 </r>
       <r>    7.0352    1.0000 </r>
       <r>    7.0352    1.0000 </r>
       <r>   10.1326   -0.0000 </r>
       <r>   10.1326   -0.0000 </r>
       <r>   10.3974   -0.0000 </r>
       <r>   11.8626   -0.0000 </r>
       <r>   11.8626   -0.0000 </r>
       <r>   13.2789   -0.0000 </r>
       <r>   14.0568    0.0000 </r>
       <r>   14.4636    0.0000 </r>
      </set>
      <set comment="kpoint 6">
       <r>   -2.3824    1.0000 </r>
       <r>    1.6979    1.0000 </r>
       <r>    5.6492    1.0000 </r>
       <r>    5.6492    1.0000 </r>
       <r>    7.2503    1.0000 </r>
       <r>    7.2503    1.0000 </r>
       <r>    9.4963   -0.0000 </r>
       <r>    9.4963   -0.0000 </r>
       <r>   11.2735   -0.0000 </r>
       <r>   11.2735   -0.0000 </r>
       <r>   11.4592   -0.0000 </r>
       <r>   13.4942   -0.0000 </r>
       <r>   14.2530    0.0000 </r>
       <r>   14.6741    0.0000 </r>
      </set>
      <set comment="kpoint 7">
       <r>   -2.1063    1.0000 </r>
       <r>    1.0727    1.0000 </r>
       <r>    5.9046    1.0000 </r>
       <r>    5.9046    1.0000 </r>
       <r>    7.5018    1.0000 </r>
       <r>    7.5018    1.0000 </r>
       <r>    8.9037   -0.0000 </r>
       <r>    8.9037   -0.0000 </r>
       <r>   10.7118   -0.0000 </r>
       <r>   10.7118   -0.0000 </r>
       <r>   12.5598   -0.0000 </r>
       <r>   13.7524    0.0000 </r>
       <r>   14.4886    0.0000 </r>
       <r>   14.9272    0.0000 </r>
      </set>
      <set comment="kpoint 8">
       <r>   -1.7849    1.0000 </r>
       <r>    0.4887    1.0000 </r>
       <r>    6.2023    1.0000 </r>
       <r>    6.2023    1.0000 </r>
       <r>    7.7750    1.0137 </r>
       <r>    7.7750    1.0137 </r>
       <r>    8.3639   -0.0337 </r>
       <r>    8.3639   -0.0337 </r>
       <r>   10.1908   -0.0000 </r>
       <r>   10.1908   -0.0000 </r>
       <r>   13.6931    0.0000 </r>
       <r>   14.0571    0.0000 </r>
       <r>   14.7637    0.0000 </r>
       <r>   15.2232    0.0000 </r>
      </set>
      <set comment="kpoint 9">
       <r>   -1.4184    1.0000 </r>
       <r>   -0.0532    1.0000 </r>
       <r>    6.5421    1.0000 </r>
       <r>    6.5421    1.0000 </r>
       <r>    7.7864    1.0160 </r>
       <r>    7.7864    1.0160 </r>
       <r>    8.1423    0.4847 </r>
       <r>    8.1423    0.4847 </r>
       <r>    9.7328   -0.0000 </r>
       <r>    9.7328   -0.0000 </r>
       <r>   14.3840    0.0000 </r>
       <r>   14.8787    0.0000 </r>
       <r>   15.0780    0.0000 </r>
       <r>   15.5642    0.0000 </r>
      </set>
      <set comment="kpoint 10">
       <r>   -1.0073    1.0000 </r>
       <r>   -0.5521    1.0000 </r>
[...]
       <r>    1.2197    1.0000 </r>
       <r>    1.6588    1.0000 </r>
       <r>    1.6588    1.0000 </r>
       <r>    2.0965    1.0000 </r>
       <r>    6.9362    1.0000 </r>
       <r>    7.3604    1.0000 </r>
       <r>    7.3604    1.0000 </r>
       <r>    7.7840    1.0155 </r>
       <r>   13.1708   -0.0000 </r>
       <r>   13.5769   -0.0000 </r>
       <r>   13.5769   -0.0000 </r>
       <r>   13.9824    0.0000 </r>
       <r>   17.4070    0.0000 </r>
       <r>   17.5041    0.0000 </r>
      </set>
      <set comment="kpoint 545">
       <r>    1.3992    1.0000 </r>
       <r>    1.8377    1.0000 </r>
       <r>    1.8377    1.0000 </r>
       <r>    2.2748    1.0000 </r>
       <r>    6.2560    1.0000 </r>
       <r>    6.6818    1.0000 </r>
       <r>    6.6818    1.0000 </r>
       <r>    7.1069    1.0000 </r>
       <r>   14.1520    0.0000 </r>
       <r>   14.5512    0.0000 </r>
       <r>   14.5512    0.0000 </r>
       <r>   14.9504    0.0000 </r>
       <r>   17.5673    0.0000 </r>
       <r>   17.6624    0.0000 </r>
      </set>
      <set comment="kpoint 546">
       <r>    1.6232    1.0000 </r>
       <r>    2.0610    1.0000 </r>
       <r>    2.0610    1.0000 </r>
       <r>    2.4970    1.0000 </r>
       <r>    5.6098    1.0000 </r>
       <r>    6.0368    1.0000 </r>
       <r>    6.0368    1.0000 </r>
       <r>    6.4634    1.0000 </r>
       <r>   15.1678    0.0000 </r>
       <r>   15.5567    0.0000 </r>
       <r>   15.5567    0.0000 </r>
       <r>   15.9469    0.0000 </r>
       <r>   17.7721    0.0000 </r>
       <r>   17.8598    0.0000 </r>
      </set>
      <set comment="kpoint 547">
       <r>    1.8915    1.0000 </r>
       <r>    2.3282    1.0000 </r>
       <r>    2.3282    1.0000 </r>
       <r>    2.7627    1.0000 </r>
       <r>    5.0022    1.0000 </r>
       <r>    5.4299    1.0000 </r>
       <r>    5.4299    1.0000 </r>
       <r>    5.8575    1.0000 </r>
       <r>   16.2070    0.0000 </r>
       <r>   16.5788    0.0000 </r>
       <r>   16.5788    0.0000 </r>
       <r>   16.9543    0.0000 </r>
       <r>   18.0000    0.0000 </r>
       <r>   18.0956    0.0000 </r>
      </set>
      <set comment="kpoint 548">
       <r>    2.2037    1.0000 </r>
       <r>    2.6386    1.0000 </r>
       <r>    2.6386    1.0000 </r>
       <r>    3.0698    1.0000 </r>
       <r>    4.4369    1.0000 </r>
       <r>    4.8635    1.0000 </r>
       <r>    4.8635    1.0000 </r>
       <r>    5.2917    1.0000 </r>
       <r>   17.2543    0.0000 </r>
       <r>   17.5912    0.0000 </r>
       <r>   17.5915    0.0000 </r>
       <r>   17.9444    0.0000 </r>
       <r>   18.2876    0.0000 </r>
       <r>   18.3677    0.0000 </r>
      </set>
      <set comment="kpoint 549">
       <r>    2.5588    1.0000 </r>
       <r>    2.9904    1.0000 </r>
       <r>    2.9904    1.0000 </r>
       <r>    3.4054    1.0000 </r>
       <r>    3.9280    1.0000 </r>
       <r>    4.3407    1.0000 </r>
       <r>    4.3407    1.0000 </r>
       <r>    4.7677    1.0000 </r>
       <r>   18.2808    0.0000 </r>
       <r>   18.5261    0.0000 </r>
       <r>   18.5282    0.0000 </r>
       <r>   18.6012    0.0000 </r>
       <r>   18.6755    0.0000 </r>
       <r>   18.6896    0.0000 </r>
      </set>
      <set comment="kpoint 550">
       <r>    2.9550    1.0000 </r>
       <r>    3.3696    1.0000 </r>
       <r>    3.3696    1.0000 </r>
       <r>    3.3772    1.0000 </r>
       <r>    3.8682    1.0000 </r>
       <r>    3.8758    1.0000 </r>
       <r>    3.8758    1.0000 </r>
       <r>    4.2882    1.0000 </r>
       <r>   18.9593    0.0000 </r>
       <r>   18.9740    0.0000 </r>
       <r>   19.0598    0.0000 </r>
       <r>   19.1178    0.0000 </r>
       <r>   19.1787    0.0000 </r>
       <r>   19.3030    0.0000 </r>
      </set>
     </set>
    </set>
   </array>
  </eigenvalues>
  <separator name="orbital magnetization" >
   <v name="MAGDIPOLOUT">      0.00000000      0.00000000      0.00000000</v>
  </separator>
  <dos>
   <i name="efermi">      8.13866860 </i>
   <total>
    <array>
     <dimension dim="1">gridpoints</dimension>
     <dimension dim="2">spin</dimension>
     <field>energy</field>
     <field>total</field>
     <field>integrated</field>
     <set>
      <set comment="spin 1">
       <r>    -5.0752     0.0000     0.0000 </r>
       <r>    -4.9872     0.0000     0.0000 </r>
       <r>    -4.8993     0.0000     0.0000 </r>
       <r>    -4.8114     0.0000     0.0000 </r>
       <r>    -4.7235    -0.0000    -0.0000 </r>
       <r>    -4.6355    -0.0000    -0.0000 </r>
       <r>    -4.5476    -0.0000    -0.0000 </r>
       <r>    -4.4597    -0.0000    -0.0000 </r>
       <r>    -4.3717    -0.0000    -0.0000 </r>
       <r>    -4.2838    -0.0000    -0.0000 </r>
       <r>    -4.1959    -0.0000    -0.0000 </r>
       <r>    -4.1080    -0.0000    -0.0000 </r>
       <r>    -4.0200    -0.0000    -0.0000 </r>
       <r>    -3.9321    -0.0000    -0.0000 </r>
       <r>    -3.8442    -0.0000    -0.0000 </r>
       <r>    -3.7563    -0.0000    -0.0000 </r>
       <r>    -3.6683    -0.0000    -0.0000 </r>
       <r>    -3.5804    -0.0001    -0.0000 </r>
       <r>    -3.4925    -0.0004    -0.0000 </r>
       <r>    -3.4045    -0.0016    -0.0002 </r>
       <r>    -3.3166    -0.0043    -0.0006 </r>
       <r>    -3.2287    -0.0047    -0.0010 </r>
       <r>    -3.1408     0.0095    -0.0001 </r>
       <r>    -3.0528     0.0509     0.0044 </r>
       <r>    -2.9649     0.1145     0.0144 </r>
       <r>    -2.8770     0.1794     0.0302 </r>
       <r>    -2.7891     0.2309     0.0505 </r>
       <r>    -2.7011     0.2698     0.0742 </r>
       <r>    -2.6132     0.3023     0.1008 </r>
       <r>    -2.5253     0.3306     0.1299 </r>
       <r>    -2.4373     0.3572     0.1613 </r>
       <r>    -2.3494     0.3842     0.1951 </r>
       <r>    -2.2615     0.4063     0.2308 </r>
       <r>    -2.1736     0.4262     0.2682 </r>
       <r>    -2.0856     0.4523     0.3080 </r>
       <r>    -1.9977     0.4745     0.3497 </r>
       <r>    -1.9098     0.4863     0.3925 </r>
       <r>    -1.8219     0.5040     0.4368 </r>
       <r>    -1.7339     0.5342     0.4838 </r>
       <r>    -1.6460     0.5543     0.5325 </r>
       <r>    -1.5581     0.5539     0.5812 </r>
       <r>    -1.4701     0.5671     0.6311 </r>
       <r>    -1.3822     0.6061     0.6844 </r>
       <r>    -1.2943     0.6282     0.7396 </r>
       <r>    -1.2064     0.6220     0.7943 </r>
       <r>    -1.1184     0.6257     0.8493 </r>
       <r>    -1.0305     0.6538     0.9068 </r>
       <r>    -0.9426     0.6857     0.9671 </r>
       <r>    -0.8547     0.7042     1.0290 </r>
       <r>    -0.7667     0.7034     1.0909 </r>
       <r>    -0.6788     0.6909     1.1516 </r>
       <r>    -0.5909     0.7048     1.2136 </r>
       <r>    -0.5029     0.7613     1.2805 </r>
       <r>    -0.4150     0.7987     1.3508 </r>
       <r>    -0.3271     0.7724     1.4187 </r>
       <r>    -0.2392     0.7406     1.4838 </r>
       <r>    -0.1512     0.7691     1.5514 </r>
       <r>    -0.0633     0.8250     1.6239 </r>
       <r>     0.0246     0.8460     1.6983 </r>
       <r>     0.1125     0.8440     1.7725 </r>
       <r>     0.2005     0.8459     1.8469 </r>
       <r>     0.2884     0.8434     1.9211 </r>
       <r>     0.3763     0.8412     1.9950 </r>
       <r>     0.4643     0.8602     2.0707 </r>
       <r>     0.5522     0.9072     2.1504 </r>
       <r>     0.6401     0.9516     2.2341 </r>
       <r>     0.7280     0.9493     2.3176 </r>
       <r>     0.8160     0.9042     2.3971 </r>
       <r>     0.9039     0.8714     2.4737 </r>
       <r>     0.9918     0.9066     2.5534 </r>
       <r>     1.0797     0.9963     2.6410 </r>
       <r>     1.1677     1.0450     2.7329 </r>
       <r>     1.2556     1.0059     2.8214 </r>
       <r>     1.3435     0.9543     2.9053 </r>
       <r>     1.4315     0.9663     2.9902 </r>
       <r>     1.5194     1.0112     3.0791 </r>
       <r>     1.6073     1.0274     3.1695 </r>
       <r>     1.6952     1.0264     3.2597 </r>
       <r>     1.7832     1.0482     3.3519 </r>
       <r>     1.8711     1.0900     3.4477 </r>
       <r>     1.9590     1.1138     3.5457 </r>
       <r>     2.0469     1.0894     3.6415 </r>
       <r>     2.1349     1.0340     3.7324 </r>
       <r>     2.2228     1.0185     3.8219 </r>
       <r>     2.3107     1.0869     3.9175 </r>
       <r>     2.3987     1.1723     4.0206 </r>
       <r>     2.4866     1.1995     4.1260 </r>
       <r>     2.5745     1.1868     4.2304 </r>
       <r>     2.6624     1.1500     4.3315 </r>
       <r>     2.7504     1.0929     4.4276 </r>
       <r>     2.8383     1.0871     4.5232 </r>
       <r>     2.9262     1.1691     4.6260 </r>
       <r>     3.0141     1.2506     4.7359 </r>
       <r>     3.1021     1.2548     4.8463 </r>
       <r>     3.1900     1.2224     4.9537 </r>
       <r>     3.2779     1.2122     5.0603 </r>
       <r>     3.3659     1.2296     5.1685 </r>
       <r>     3.4538     1.2648     5.2797 </r>
       <r>     3.5417     1.2836     5.3925 </r>
       <r>     3.6296     1.2449     5.5020 </r>
       <r>     3.7176     1.1911     5.6067 </r>
       <r>     3.8055     1.2161     5.7136 </r>
       <r>     3.8934     1.3186     5.8296 </r>
       <r>     3.9813     1.3910     5.9519 </r>
       <r>     4.0693     1.3677     6.0721 </r>
       <r>     4.1572     1.2881     6.1854 </r>
       <r>     4.2451     1.2324     6.2938 </r>
       <r>     4.3331     1.2446     6.4032 </r>
       <r>     4.4210     1.3159     6.5189 </r>
       <r>     4.5089     1.4125     6.6431 </r>
       <r>     4.5968     1.4717     6.7725 </r>
       <r>     4.6848     1.4447     6.8995 </r>
       <r>     4.7727     1.3758     7.0205 </r>
       <r>     4.8606     1.3462     7.1389 </r>
       <r>     4.9485     1.3771     7.2600 </r>
       <r>     5.0365     1.4473     7.3872 </r>
       <r>     5.1244     1.5255     7.5213 </r>
       <r>     5.2123     1.5665     7.6591 </r>
       <r>     5.3003     1.5511     7.7955 </r>
       <r>     5.3882     1.5093     7.9282 </r>
       <r>     5.4761     1.4720     8.0576 </r>
       <r>     5.5640     1.4620     8.1862 </r>
       <r>     5.6520     1.4957     8.3177 </r>
       <r>     5.7399     1.5297     8.4522 </r>
       <r>     5.8278     1.5086     8.5848 </r>
       <r>     5.9157     1.4447     8.7119 </r>
       <r>     6.0037     1.3833     8.8335 </r>
       <r>     6.0916     1.3506     8.9522 </r>
       <r>     6.1795     1.3629     9.0721 </r>
       <r>     6.2675     1.4118     9.1962 </r>
       <r>     6.3554     1.4357     9.3224 </r>
       <r>     6.4433     1.4129     9.4467 </r>
       <r>     6.5312     1.3866     9.5686 </r>
       <r>     6.6192     1.3669     9.6888 </r>
       <r>     6.7071     1.3732     9.8095 </r>
       <r>     6.7950     1.4584     9.9378 </r>
       <r>     6.8829     1.5738    10.0761 </r>
       <r>     6.9709     1.5972    10.2166 </r>
       <r>     7.0588     1.5249    10.3507 </r>
       <r>     7.1467     1.4749    10.4803 </r>
       <r>     7.2347     1.5089    10.6130 </r>
       <r>     7.3226     1.5716    10.7512 </r>
       <r>     7.4105     1.5987    10.8918 </r>
       <r>     7.4984     1.5749    11.0302 </r>
       <r>     7.5864     1.5068    11.1627 </r>
       <r>     7.6743     1.4560    11.2908 </r>
       <r>     7.7622     1.5025    11.4229 </r>
       <r>     7.8501     1.5978    11.5634 </r>
       <r>     7.9381     1.6125    11.7051 </r>
       <r>     8.0260     1.5238    11.8391 </r>
       <r>     8.1139     1.4315    11.9650 </r>
       <r>     8.2019     1.4379    12.0914 </r>
       <r>     8.2898     1.5669    12.2292 </r>
       <r>     8.3777     1.7573    12.3837 </r>
       <r>     8.4656     1.8811    12.5491 </r>
       <r>     8.5536     1.8413    12.7110 </r>
       <r>     8.6415     1.6929    12.8599 </r>
       <r>     8.7294     1.5733    12.9982 </r>
       <r>     8.8173     1.5491    13.1344 </r>
       <r>     8.9053     1.5912    13.2743 </r>
       <r>     8.9932     1.6419    13.4187 </r>
       <r>     9.0811     1.6779    13.5662 </r>
       <r>     9.1691     1.6969    13.7154 </r>
       <r>     9.2570     1.6824    13.8633 </r>
       <r>     9.3449     1.6623    14.0095 </r>
       <r>     9.4328     1.6995    14.1589 </r>
       <r>     9.5208     1.7726    14.3148 </r>
       <r>     9.6087     1.8055    14.4736 </r>
       <r>     9.6966     1.7771    14.6298 </r>
       <r>     9.7845     1.7035    14.7796 </r>
       <r>     9.8725     1.6101    14.9212 </r>
       <r>     9.9604     1.5610    15.0584 </r>
       <r>    10.0483     1.6284    15.2016 </r>
       <r>    10.1363     1.7925    15.3592 </r>
       <r>    10.2242     1.9451    15.5302 </r>
       <r>    10.3121     1.9973    15.7059 </r>
       <r>    10.4000     1.9025    15.8731 </r>
       <r>    10.4880     1.6975    16.0224 </r>
       <r>    10.5759     1.5706    16.1605 </r>
       <r>    10.6638     1.6729    16.3076 </r>
       <r>    10.7517     1.8843    16.4733 </r>
       <r>    10.8397     1.9773    16.6471 </r>
       <r>    10.9276     1.9248    16.8164 </r>
       <r>    11.0155     1.8416    16.9783 </r>
       <r>    11.1035     1.7856    17.1353 </r>
       <r>    11.1914     1.7700    17.2909 </r>
       <r>    11.2793     1.7914    17.4484 </r>
       <r>    11.3672     1.8260    17.6090 </r>
       <r>    11.4552     1.8823    17.7745 </r>
       <r>    11.5431     1.9714    17.9478 </r>
       <r>    11.6310     2.0402    18.1272 </r>
       <r>    11.7190     2.0251    18.3053 </r>
       <r>    11.8069     1.9295    18.4750 </r>
       <r>    11.8948     1.8330    18.6361 </r>
       <r>    11.9827     1.8196    18.7961 </r>
       <r>    12.0707     1.8795    18.9614 </r>
       <r>    12.1586     1.9371    19.1317 </r>
       <r>    12.2465     1.9536    19.3035 </r>
       <r>    12.3344     1.9347    19.4736 </r>
       <r>    12.4224     1.9421    19.6443 </r>
       <r>    12.5103     2.0452    19.8242 </r>
       <r>    12.5982     2.1601    20.0141 </r>
       <r>    12.6862     2.1567    20.2037 </r>
       <r>    12.7741     2.0565    20.3846 </r>
       <r>    12.8620     1.9568    20.5566 </r>
       <r>    12.9499     1.9197    20.7254 </r>
       <r>    13.0379     1.9443    20.8964 </r>
       <r>    13.1258     2.0036    21.0725 </r>
       <r>    13.2137     2.0945    21.2567 </r>
       <r>    13.3016     2.1890    21.4492 </r>
       <r>    13.3896     2.2341    21.6456 </r>
       <r>    13.4775     2.2224    21.8410 </r>
       <r>    13.5654     2.1714    22.0320 </r>
       <r>    13.6534     2.1127    22.2177 </r>
       <r>    13.7413     2.1429    22.4061 </r>
       <r>    13.8292     2.3142    22.6096 </r>
       <r>    13.9171     2.4832    22.8280 </r>
       <r>    14.0051     2.4741    23.0455 </r>
       <r>    14.0930     2.3201    23.2495 </r>
       <r>    14.1809     2.1858    23.4417 </r>
       <r>    14.2688     2.1552    23.6312 </r>
       <r>    14.3568     2.1868    23.8235 </r>
       <r>    14.4447     2.2346    24.0200 </r>
       <r>    14.5326     2.2809    24.2205 </r>
       <r>    14.6206     2.2505    24.4184 </r>
       <r>    14.7085     2.1096    24.6039 </r>
       <r>    14.7964     1.9900    24.7789 </r>
       <r>    14.8843     1.9785    24.9528 </r>
       <r>    14.9723     1.9767    25.1266 </r>
       <r>    15.0602     1.9468    25.2978 </r>
       <r>    15.1481     1.9807    25.4720 </r>
       <r>    15.2360     2.0311    25.6506 </r>
       <r>    15.3240     1.9167    25.8191 </r>
       <r>    15.4119     1.6324    25.9626 </r>
       <r>    15.4998     1.4034    26.0860 </r>
       <r>    15.5878     1.3927    26.2085 </r>
       <r>    15.6757     1.5054    26.3408 </r>
       <r>    15.7636     1.5591    26.4779 </r>
       <r>    15.8515     1.4906    26.6090 </r>
       <r>    15.9395     1.3205    26.7251 </r>
       <r>    16.0274     1.1104    26.8227 </r>
       <r>    16.1153     0.9500    26.9063 </r>
       <r>    16.2032     0.8767    26.9833 </r>
       <r>    16.2912     0.8623    27.0592 </r>
       <r>    16.3791     0.8500    27.1339 </r>
       <r>    16.4670     0.8039    27.2046 </r>
       <r>    16.5550     0.7541    27.2709 </r>
       <r>    16.6429     0.7220    27.3344 </r>
       <r>    16.7308     0.6734    27.3936 </r>
       <r>    16.8187     0.6078    27.4470 </r>
       <r>    16.9067     0.5658    27.4968 </r>
       <r>    16.9946     0.5375    27.5440 </r>
       <r>    17.0825     0.4840    27.5866 </r>
       <r>    17.1704     0.4169    27.6233 </r>
       <r>    17.2584     0.3783    27.6565 </r>
       <r>    17.3463     0.3857    27.6904 </r>
       <r>    17.4342     0.4097    27.7265 </r>
       <r>    17.5222     0.4056    27.7621 </r>
       <r>    17.6101     0.3734    27.7949 </r>
       <r>    17.6980     0.3287    27.8239 </r>
       <r>    17.7859     0.2682    27.8474 </r>
       <r>    17.8739     0.2159    27.8664 </r>
       <r>    17.9618     0.1975    27.8838 </r>
       <r>    18.0497     0.1890    27.9004 </r>
       <r>    18.1376     0.1696    27.9153 </r>
       <r>    18.2256     0.1528    27.9288 </r>
       <r>    18.3135     0.1412    27.9412 </r>
       <r>    18.4014     0.1255    27.9522 </r>
       <r>    18.4894     0.1063    27.9616 </r>
       <r>    18.5773     0.0889    27.9694 </r>
       <r>    18.6652     0.0769    27.9761 </r>
       <r>    18.7531     0.0649    27.9818 </r>
       <r>    18.8411     0.0486    27.9861 </r>
       <r>    18.9290     0.0357    27.9892 </r>
       <r>    19.0169     0.0314    27.9920 </r>
       <r>    19.1048     0.0304    27.9947 </r>
       <r>    19.1928     0.0266    27.9970 </r>
       <r>    19.2807     0.0195    27.9987 </r>
       <r>    19.3686     0.0112    27.9997 </r>
       <r>    19.4566     0.0042    28.0001 </r>
       <r>    19.5445     0.0003    28.0001 </r>
       <r>    19.6324    -0.0007    28.0001 </r>
       <r>    19.7203    -0.0004    28.0000 </r>
       <r>    19.8083    -0.0001    28.0000 </r>
       <r>    19.8962    -0.0000    28.0000 </r>
       <r>    19.9841    -0.0000    28.0000 </r>
       <r>    20.0720    -0.0000    28.0000 </r>
       <r>    20.1600    -0.0000    28.0000 </r>
       <r>    20.2479    -0.0000    28.0000 </r>
       <r>    20.3358    -0.0000    28.0000 </r>
       <r>    20.4238    -0.0000    28.0000 </r>
       <r>    20.5117    -0.0000    28.0000 </r>
       <r>    20.5996    -0.0000    28.0000 </r>
       <r>    20.6875     0.0000    28.0000 </r>
       <r>    20.7755     0.0000    28.0000 </r>
       <r>    20.8634     0.0000    28.0000 </r>
       <r>    20.9513     0.0000    28.0000 </r>
       <r>    21.0392     0.0000    28.0000 </r>
       <r>    21.1272     0.0000    28.0000 </r>
       <r>    21.2151     0.0000    28.0000 </r>
       <r>    21.3030     0.0000    28.0000 </r>
      </set>
     </set>
    </array>
   </total>
  </dos>
 </calculation>
 <structure name="finalpos" >
  <crystal>
   <varray name="basis" >
    <v>       3.99833640       0.00000000       0.00000000 </v>
    <v>      -0.00000000       4.03892969       0.00000000 </v>
    <v>       0.00000000       0.00000000       4.03892969 </v>
   </varray>
   <i name="volume">     65.22467411 </i>
   <varray name="rec_basis" >
    <v>       0.25010402       0.00000000      -0.00000000 </v>
    <v>       0.00000000       0.24759035      -0.00000000 </v>
    <v>       0.00000000      -0.00000000       0.24759035 </v>
   </varray>
  </crystal>
  <varray name="positions" >
   <v>       0.00000000       0.00000000       0.00000000 </v>
   <v>       0.00000000       0.50000000       0.50000000 </v>
   <v>       0.50000000       0.00000000       0.50000000 </v>
   <v>       0.50000000       0.50000000       0.00000000 </v>
  </varray>
 </structure>
</modeling>
