:: initializing oneAPI environment ...
   BASH version = 5.0.17(1)-release
:: tbb -- latest
:: dev-utilities -- latest
:: mkl -- latest
:: compiler -- latest
:: mpi -- latest
:: oneAPI environment initialized ::
 running on   32 total cores
 distrk:  each k-point on   32 cores,    1 groups
 distr:  one band on    1 cores,   32 groups
 using from now: INCAR     
 vasp.5.4.4.18Apr17-6-g9f103f2a35 (build Nov 07 2022 11:18:25) complex          
  
 POSCAR found type information on POSCAR  Al
 POSCAR found :  1 types and      16 ions
 scaLAPACK will be used

 ----------------------------------------------------------------------------- 
|                                                                             |
|           W    W    AA    RRRRR   N    N  II  N    N   GGGG   !!!           |
|           W    W   A  A   R    R  NN   N  II  NN   N  G    G  !!!           |
|           W    W  A    A  R    R  N N  N  II  N N  N  G       !!!           |
|           W WW W  AAAAAA  RRRRR   N  N N  II  N  N N  G  GGG   !            |
|           WW  WW  A    A  R   R   N   NN  II  N   NN  G    G                |
|           W    W  A    A  R    R  N    N  II  N    N   GGGG   !!!           |
|                                                                             |
|      For optimal performance we recommend to set                            |
|        NCORE= 4 - approx SQRT( number of cores)                             |
|      NCORE specifies how many cores store one orbital (NPAR=cpu/NCORE).     |
|      This setting can  greatly improve the performance of VASP for DFT.     |
|      The default,   NCORE=1            might be grossly inefficient         |
|      on modern multi-core architectures or massively parallel machines.     |
|      Do your own testing !!!!                                               |
|      Unfortunately you need to use the default for GW and RPA calculations. |
|      (for HF NCORE is supported but not extensively tested yet)             |
|                                                                             |
 ----------------------------------------------------------------------------- 

 LDA part: xc-table for Pade appr. of Perdew
 POSCAR, INCAR and KPOINTS ok, starting setup
 FFT: planning ...
 WAVECAR not read
 entering main loop
       N       E                     dE             d eps       ncg     rms          rms(c)
DAV:   1     0.477194882374E+02    0.47719E+02   -0.13350E+04 64512   0.452E+02
DAV:   2    -0.556480365273E+02   -0.10337E+03   -0.97430E+02 89056   0.799E+01
DAV:   3    -0.594694770531E+02   -0.38214E+01   -0.38016E+01 91616   0.150E+01
DAV:   4    -0.596658000418E+02   -0.19632E+00   -0.19631E+00108896   0.372E+00
DAV:   5    -0.596685417309E+02   -0.27417E-02   -0.27417E-02101440   0.378E-01    0.573E+00
RMM:   6    -0.593888263676E+02    0.27972E+00   -0.48553E-01 76772   0.902E-01    0.428E+00
RMM:   7    -0.578086849077E+02    0.15801E+01   -0.99822E-02 71432   0.429E-01    0.240E+00
RMM:   8    -0.575715875007E+02    0.23710E+00   -0.95032E-02 78239   0.509E-01    0.649E-01
RMM:   9    -0.575562864439E+02    0.15301E-01   -0.10108E-02 81898   0.193E-01    0.293E-01
RMM:  10    -0.575539503578E+02    0.23361E-02   -0.26939E-03 80108   0.995E-02    0.136E-01
RMM:  11    -0.575527744652E+02    0.11759E-02   -0.15263E-03 78194   0.661E-02    0.405E-02
RMM:  12    -0.575530964397E+02   -0.32197E-03   -0.30764E-04 80673   0.311E-02    0.291E-02
RMM:  13    -0.575532448602E+02   -0.14842E-03   -0.36632E-04 74055   0.309E-02    0.245E-02
RMM:  14    -0.575535699383E+02   -0.32508E-03   -0.42829E-05 74524   0.146E-02    0.936E-03
RMM:  15    -0.575537235646E+02   -0.15363E-03   -0.40430E-05 70472   0.996E-03    0.899E-03
RMM:  16    -0.575539061934E+02   -0.18263E-03   -0.20230E-05 69288   0.627E-03    0.465E-03
RMM:  17    -0.575541048836E+02   -0.19869E-03   -0.83348E-06 66182   0.428E-03    0.232E-03
RMM:  18    -0.575541971478E+02   -0.92264E-04   -0.51111E-06 64621   0.315E-03    0.891E-04
RMM:  19    -0.575542420774E+02   -0.44930E-04   -0.37925E-06 62267   0.236E-03    0.284E-04
RMM:  20    -0.575542459905E+02   -0.39131E-05   -0.24124E-07 61062   0.103E-03    0.643E-04
RMM:  21    -0.575542480973E+02   -0.21068E-05   -0.10627E-07 54425   0.775E-04    0.455E-04
RMM:  22    -0.575542490479E+02   -0.95062E-06   -0.79025E-08 50539   0.658E-04
   1 F= -.57554249E+02 E0= -.57554433E+02  d E =0.550756E-03
