 vasp.5.4.4.18Apr17-6-g9f103f2a35 (build Nov 07 2022 11:18:25) complex          
  
 executed on             LinuxIFC date 2024.05.28  09:34:31
 running on   32 total cores
 distrk:  each k-point on   32 cores,    1 groups
 distr:  one band on NCORES_PER_BAND=   1 cores,   32 groups


--------------------------------------------------------------------------------------------------------


 INCAR:
 POTCAR:    PAW_PBE Al 04Jan2001                  

 ----------------------------------------------------------------------------- 
|                                                                             |
|           W    W    AA    RRRRR   N    N  II  N    N   GGGG   !!!           |
|           W    W   A  A   R    R  NN   N  II  NN   N  G    G  !!!           |
|           W    W  A    A  R    R  N N  N  II  N N  N  G       !!!           |
|           W WW W  AAAAAA  RRRRR   N  N N  II  N  N N  G  GGG   !            |
|           WW  WW  A    A  R   R   N   NN  II  N   NN  G    G                |
|           W    W  A    A  R    R  N    N  II  N    N   GGGG   !!!           |
|                                                                             |
|      For optimal performance we recommend to set                            |
|        NCORE= 4 - approx SQRT( number of cores)                             |
|      NCORE specifies how many cores store one orbital (NPAR=cpu/NCORE).     |
|      This setting can  greatly improve the performance of VASP for DFT.     |
|      The default,   NCORE=1            might be grossly inefficient         |
|      on modern multi-core architectures or massively parallel machines.     |
|      Do your own testing !!!!                                               |
|      Unfortunately you need to use the default for GW and RPA calculations. |
|      (for HF NCORE is supported but not extensively tested yet)             |
|                                                                             |
 ----------------------------------------------------------------------------- 

 POTCAR:    PAW_PBE Al 04Jan2001                  
   SHA256 =  17880443556af62b473fe41b62a467bd001ad55d2cabe504a3f22e34d4e9db96 Al
   COPYR  = (c) Copyright 04Jan2001 Georg Kresse                                
   COPYR  = This file is part of the software VASP. Any use, copying, and all ot
   COPYR  = If you do not have a valid VASP license, you may not use, copy or di
   VRHFIN =Al: s2p1                                                             
   LEXCH  = PE                                                                  
   EATOM  =    53.5387 eV,    3.9350 Ry                                         
                                                                                
   TITEL  = PAW_PBE Al 04Jan2001                                                
   LULTRA =        F    use ultrasoft PP ?                                      
   IUNSCR =        1    unscreen: 0-lin 1-nonlin 2-no                           
   RPACOR =    1.500    partial core radius                                     
   POMASS =   26.981; ZVAL   =    3.000    mass and valenz                      
   RCORE  =    1.900    outmost cutoff radius                                   
   RWIGS  =    2.650; RWIGS  =    1.402    wigner-seitz radius (au A)           
   ENMAX  =  240.300; ENMIN  =  180.225 eV                                      
   ICORE  =        2    local potential                                         
   LCOR   =        T    correct aug charges                                     
   LPAW   =        T    paw PP                                                  
   EAUG   =  291.052                                                            
   DEXC   =    0.000                                                            
   RMAX   =    1.939    core radius for proj-oper                               
   RAUG   =    1.300    factor for augmentation sphere                          
   RDEP   =    1.966    radius for radial grids                                 
   RDEPT  =    1.856    core radius for aug-charge                              
                                                                                
   Atomic configuration                                                         
    6 entries                                                                   
     n  l   j            E        occ.                                          
     1  0  0.50     -1511.1048   2.0000                                         
     2  0  0.50      -108.1629   2.0000                                         
     2  1  1.50       -69.6402   6.0000                                         
     3  0  0.50        -7.7528   2.0000                                         
     3  1  1.50        -2.7121   1.0000                                         
     3  2  2.50        -2.7212   0.0000                                         
   Description                                                                  
     l       E           TYP  RCUT    TYP  RCUT                                 
     0     -7.7528455     23  1.900                                             
     0     -3.3096929     23  1.900                                             
     1     -2.7120682     23  1.900                                             
     1     13.6058260     23  1.900                                             
     2     -2.7211652      7  1.900                                             
  local pseudopotential read in
  partial core-charges read in
  partial kinetic energy density read in
  atomic valenz-charges read in
  non local Contribution for L=           0  read in
    real space projection operators read in
  non local Contribution for L=           0  read in
    real space projection operators read in
  non local Contribution for L=           1  read in
    real space projection operators read in
  non local Contribution for L=           1  read in
    real space projection operators read in
    PAW grid and wavefunctions read in
 
   number of l-projection  operators is LMAX  =           4
   number of lm-projection operators is LMMAX =           8
 
 Optimization of the real space projectors (new method)

 maximal supplied QI-value         = 19.84
 optimisation between [QCUT,QGAM] = [ 10.12, 20.44] = [ 28.68,116.96] Ry 
 Optimized for a Real-space Cutoff    1.38 Angstroem

   l    n(q)    QCUT    max X(q) W(low)/X(q) W(high)/X(q)  e(spline) 
   0      8    10.119   176.870    0.39E-04    0.93E-04    0.54E-07
   0      8    10.119   105.762    0.37E-04    0.91E-04    0.53E-07
   1      8    10.119    55.370    0.18E-03    0.13E-03    0.19E-06
   1      8    10.119    20.208    0.17E-03    0.12E-03    0.18E-06
  PAW_PBE Al 04Jan2001                  :
 energy of atom  1       EATOM=  -53.5387
 kinetic energy error for atom=    0.0005 (will be added to EATOM!!)
 
 
 POSCAR: Al16                                    
  positions in direct lattice
  No initial velocities read in
 exchange correlation table for  LEXCH =        8
   RHO(1)=    0.500       N(1)  =     2000
   RHO(2)=  100.500       N(2)  =     4000
 


--------------------------------------------------------------------------------------------------------


 ion  position               nearest neighbor table
   1  0.000  0.672  0.891-   7 2.86   4 2.86   3 2.86   8 2.86   2 2.86   6 2.86   3 2.86   8 2.86
                             7 2.86   4 2.86
   2  0.000  0.359  0.953-   8 2.86   3 2.86   4 2.86   1 2.86   3 2.86   4 2.86   8 2.86
   3  0.500  0.016  0.922-   6 2.86   1 2.86   2 2.86   8 2.86   4 2.86   1 2.86   2 2.86   6 2.86

   4  0.500  0.703  0.984-   1 2.86   2 2.86   3 2.86   2 2.86   1 2.86
   5  0.000  0.297  0.766-  11 2.86   8 2.86   7 2.86  12 2.86   6 2.86  10 2.86   7 2.86  12 2.86
                            11 2.86   8 2.86
   6  0.000  0.984  0.828-  12 2.86   3 2.86   7 2.86   8 2.86   1 2.86   5 2.86   7 2.86   8 2.86
                             3 2.86  12 2.86
   7  0.500  0.641  0.797-  10 2.86   1 2.86   5 2.86   6 2.86   8 2.86  12 2.86   5 2.86   6 2.86
                             1 2.86  10 2.86
   8  0.500  0.328  0.859-   5 2.86   2 2.86   1 2.86   6 2.86   3 2.86   7 2.86   1 2.86   6 2.86
                             5 2.86   2 2.86
   9  0.000  0.922  0.641-  15 2.86  12 2.86  11 2.86  16 2.86  10 2.86  14 2.86  11 2.86  16 2.86
                            15 2.86  12 2.86
  10  0.000  0.609  0.703-  16 2.86   7 2.86  11 2.86  12 2.86   5 2.86   9 2.86  11 2.86  12 2.86
                             7 2.86  16 2.86
  11  0.500  0.266  0.672-  14 2.86   5 2.86   9 2.86  10 2.86  12 2.86  16 2.86   9 2.86  10 2.86
                             5 2.86  14 2.86
  12  0.500  0.953  0.734-   9 2.86   6 2.86   5 2.86  10 2.86   7 2.86  11 2.86   5 2.86  10 2.86
                             9 2.86   6 2.86
  13  0.000  0.547  0.516-  16 2.86  15 2.86  14 2.86  15 2.86  16 2.86
  14  0.000  0.234  0.578-  11 2.86  15 2.86  16 2.86  13 2.86   9 2.86  15 2.86  16 2.86  11 2.86

  15  0.500  0.891  0.547-   9 2.86  13 2.86  14 2.86  16 2.86  13 2.86  14 2.86   9 2.86
  16  0.500  0.578  0.609-  13 2.86  10 2.86   9 2.86  14 2.86  11 2.86  15 2.86   9 2.86  14 2.86
                            13 2.86  10 2.86
 
  LATTYP: Found a triclinic cell.
 ALAT       =     7.5561455606
 B/A-ratio  =     0.3779644730
 C/A-ratio  =     3.8172542911
 COS(alpha) =     0.0003466958
 COS(beta)  =     0.3743716105
 COS(gamma) =     0.3779644730
  
  Lattice vectors:
  
 A1 = (  -2.8559545748,  -6.9684638334,   0.6159310039)
 A2 = (  -2.8559545748,   0.0000000000,   0.0000000000)
 A3 = (  -0.0100000000, -13.9369276669, -25.2531711593)


Analysis of symmetry for initial positions (statically):
=====================================================================
 Subroutine PRICEL returns:
 Original cell was already a primitive cell.
 

 Routine SETGRP: Setting up the symmetry group for a 
 triclinic supercell.


 Subroutine GETGRP returns: Found  2 space group operations
 (whereof  1 operations were pure point group operations)
 out of a pool of  2 trial point group operations.


The static configuration has the point symmetry C_1 .
 The point group associated with its full space group is S_2 .


Analysis of symmetry for dynamics (positions and initial velocities):
=====================================================================
 Subroutine PRICEL returns:
 Original cell was already a primitive cell.
 

 Routine SETGRP: Setting up the symmetry group for a 
 triclinic supercell.


 Subroutine GETGRP returns: Found  2 space group operations
 (whereof  1 operations were pure point group operations)
 out of a pool of  2 trial point group operations.


The dynamic configuration has the point symmetry C_1 .
 The point group associated with its full space group is S_2 .


 Subroutine INISYM returns: Found  2 space group operations
 (whereof  1 operations are pure point group operations),
 and found     1 'primitive' translations

 
 
 KPOINTS: Automatic kpoint scheme                 

Automatic generation of k-mesh.
Space group operators:
 irot       det(A)        alpha          n_x          n_y          n_z        tau_x        tau_y        tau_z
    1     1.000000     0.000000     1.000000     0.000000     0.000000     0.000000     0.000000     0.000000
    2    -1.000000     0.000000     1.000000     0.000000     0.000000    -1.500000    -1.750000    -0.500000
 
 Subroutine IBZKPT returns following result:
 ===========================================
 
 Found    504 irreducible k-points:
 
 Following reciprocal coordinates:
            Coordinates               Weight
  0.017857  0.041667  0.000000      2.000000
  0.053571  0.041667  0.000000      2.000000
  0.089286  0.041667 -0.000000      2.000000
  0.125000  0.041667 -0.000000      2.000000
  0.160714  0.041667  0.000000      2.000000
  0.196429  0.041667  0.000000      2.000000
  0.232143  0.041667 -0.000000      2.000000
  0.267857  0.041667  0.000000      2.000000
  0.303571  0.041667 -0.000000      2.000000
  0.339286  0.041667 -0.000000      2.000000
  0.375000  0.041667 -0.000000      2.000000
  0.410714  0.041667 -0.000000      2.000000
  0.446429  0.041667 -0.000000      2.000000
  0.482143  0.041667 -0.000000      2.000000
 -0.482143  0.041667  0.000000      2.000000
 -0.446429  0.041667  0.000000      2.000000
 -0.410714  0.041667  0.000000      2.000000
 -0.375000  0.041667  0.000000      2.000000
 -0.339286  0.041667  0.000000      2.000000
 -0.303571  0.041667  0.000000      2.000000
 -0.267857  0.041667  0.000000      2.000000
 -0.232143  0.041667 -0.000000      2.000000
 -0.196429  0.041667  0.000000      2.000000
 -0.160714  0.041667  0.000000      2.000000
 -0.125000  0.041667  0.000000      2.000000
 -0.089286  0.041667  0.000000      2.000000
 -0.053571  0.041667  0.000000      2.000000
 -0.017857  0.041667  0.000000      2.000000
  0.017857  0.125000  0.000000      2.000000
  0.053571  0.125000  0.000000      2.000000
  0.089286  0.125000 -0.000000      2.000000
  0.125000  0.125000 -0.000000      2.000000
  0.160714  0.125000  0.000000      2.000000
  0.196429  0.125000  0.000000      2.000000
  0.232143  0.125000 -0.000000      2.000000
  0.267857  0.125000  0.000000      2.000000
  0.303571  0.125000 -0.000000      2.000000
  0.339286  0.125000 -0.000000      2.000000
  0.375000  0.125000 -0.000000      2.000000
  0.410714  0.125000 -0.000000      2.000000
  0.446429  0.125000 -0.000000      2.000000
  0.482143  0.125000 -0.000000      2.000000
 -0.482143  0.125000  0.000000      2.000000
 -0.446429  0.125000  0.000000      2.000000
 -0.410714  0.125000  0.000000      2.000000
 -0.375000  0.125000  0.000000      2.000000
 -0.339286  0.125000  0.000000      2.000000
 -0.303571  0.125000  0.000000      2.000000
 -0.267857  0.125000  0.000000      2.000000
 -0.232143  0.125000 -0.000000      2.000000
 -0.196429  0.125000  0.000000      2.000000
 -0.160714  0.125000  0.000000      2.000000
 -0.125000  0.125000  0.000000      2.000000
 -0.089286  0.125000  0.000000      2.000000
 -0.053571  0.125000  0.000000      2.000000
 -0.017857  0.125000  0.000000      2.000000
  0.017857  0.208333  0.000000      2.000000
  0.053571  0.208333  0.000000      2.000000
  0.089286  0.208333 -0.000000      2.000000
  0.125000  0.208333 -0.000000      2.000000
  0.160714  0.208333  0.000000      2.000000
  0.196429  0.208333  0.000000      2.000000
  0.232143  0.208333 -0.000000      2.000000
  0.267857  0.208333  0.000000      2.000000
  0.303571  0.208333 -0.000000      2.000000
  0.339286  0.208333 -0.000000      2.000000
  0.375000  0.208333 -0.000000      2.000000
  0.410714  0.208333 -0.000000      2.000000
  0.446429  0.208333 -0.000000      2.000000
  0.482143  0.208333 -0.000000      2.000000
 -0.482143  0.208333  0.000000      2.000000
 -0.446429  0.208333  0.000000      2.000000
 -0.410714  0.208333  0.000000      2.000000
 -0.375000  0.208333  0.000000      2.000000
 -0.339286  0.208333  0.000000      2.000000
 -0.303571  0.208333  0.000000      2.000000
 -0.267857  0.208333  0.000000      2.000000
 -0.232143  0.208333 -0.000000      2.000000
 -0.196429  0.208333  0.000000      2.000000
 -0.160714  0.208333  0.000000      2.000000
 -0.125000  0.208333  0.000000      2.000000
 -0.089286  0.208333  0.000000      2.000000
 -0.053571  0.208333  0.000000      2.000000
 -0.017857  0.208333  0.000000      2.000000
  0.017857  0.291667  0.000000      2.000000
  0.053571  0.291667  0.000000      2.000000
  0.089286  0.291667 -0.000000      2.000000
  0.125000  0.291667 -0.000000      2.000000
  0.160714  0.291667  0.000000      2.000000
  0.196429  0.291667  0.000000      2.000000
  0.232143  0.291667 -0.000000      2.000000
  0.267857  0.291667  0.000000      2.000000
  0.303571  0.291667 -0.000000      2.000000
  0.339286  0.291667 -0.000000      2.000000
  0.375000  0.291667 -0.000000      2.000000
  0.410714  0.291667 -0.000000      2.000000
  0.446429  0.291667 -0.000000      2.000000
  0.482143  0.291667 -0.000000      2.000000
 -0.482143  0.291667  0.000000      2.000000
 -0.446429  0.291667  0.000000      2.000000
 -0.410714  0.291667  0.000000      2.000000
 -0.375000  0.291667  0.000000      2.000000
 -0.339286  0.291667  0.000000      2.000000
 -0.303571  0.291667  0.000000      2.000000
 -0.267857  0.291667  0.000000      2.000000
 -0.232143  0.291667 -0.000000      2.000000
 -0.196429  0.291667  0.000000      2.000000
 -0.160714  0.291667  0.000000      2.000000
 -0.125000  0.291667  0.000000      2.000000
 -0.089286  0.291667  0.000000      2.000000
 -0.053571  0.291667  0.000000      2.000000
 -0.017857  0.291667  0.000000      2.000000
  0.017857  0.375000  0.000000      2.000000
  0.053571  0.375000  0.000000      2.000000
  0.089286  0.375000 -0.000000      2.000000
  0.125000  0.375000 -0.000000      2.000000
  0.160714  0.375000  0.000000      2.000000
  0.196429  0.375000  0.000000      2.000000
  0.232143  0.375000 -0.000000      2.000000
  0.267857  0.375000  0.000000      2.000000
  0.303571  0.375000 -0.000000      2.000000
  0.339286  0.375000 -0.000000      2.000000
  0.375000  0.375000 -0.000000      2.000000
  0.410714  0.375000 -0.000000      2.000000
  0.446429  0.375000 -0.000000      2.000000
  0.482143  0.375000 -0.000000      2.000000
 -0.482143  0.375000  0.000000      2.000000
 -0.446429  0.375000  0.000000      2.000000
 -0.410714  0.375000  0.000000      2.000000
 -0.375000  0.375000  0.000000      2.000000
 -0.339286  0.375000  0.000000      2.000000
 -0.303571  0.375000  0.000000      2.000000
 -0.267857  0.375000  0.000000      2.000000
 -0.232143  0.375000 -0.000000      2.000000
 -0.196429  0.375000  0.000000      2.000000
 -0.160714  0.375000  0.000000      2.000000
 -0.125000  0.375000  0.000000      2.000000
 -0.089286  0.375000  0.000000      2.000000
 -0.053571  0.375000  0.000000      2.000000
 -0.017857  0.375000  0.000000      2.000000
  0.017857  0.458333  0.000000      2.000000
  0.053571  0.458333  0.000000      2.000000
  0.089286  0.458333 -0.000000      2.000000
  0.125000  0.458333 -0.000000      2.000000
  0.160714  0.458333  0.000000      2.000000
  0.196429  0.458333  0.000000      2.000000
  0.232143  0.458333 -0.000000      2.000000
  0.267857  0.458333  0.000000      2.000000
  0.303571  0.458333 -0.000000      2.000000
  0.339286  0.458333 -0.000000      2.000000
  0.375000  0.458333 -0.000000      2.000000
  0.410714  0.458333 -0.000000      2.000000
  0.446429  0.458333 -0.000000      2.000000
  0.482143  0.458333 -0.000000      2.000000
 -0.482143  0.458333  0.000000      2.000000
 -0.446429  0.458333  0.000000      2.000000
 -0.410714  0.458333  0.000000      2.000000
 -0.375000  0.458333  0.000000      2.000000
 -0.339286  0.458333  0.000000      2.000000
 -0.303571  0.458333  0.000000      2.000000
 -0.267857  0.458333  0.000000      2.000000
 -0.232143  0.458333 -0.000000      2.000000
 -0.196429  0.458333  0.000000      2.000000
 -0.160714  0.458333  0.000000      2.000000
 -0.125000  0.458333  0.000000      2.000000
 -0.089286  0.458333  0.000000      2.000000
 -0.053571  0.458333  0.000000      2.000000
 -0.017857  0.458333  0.000000      2.000000
  0.017857  0.041667  0.333333      2.000000
  0.053571  0.041667  0.333333      2.000000
  0.089286  0.041667  0.333333      2.000000
  0.125000  0.041667  0.333333      2.000000
  0.160714  0.041667  0.333333      2.000000
  0.196429  0.041667  0.333333      2.000000
  0.232143  0.041667  0.333333      2.000000
  0.267857  0.041667  0.333333      2.000000
  0.303571  0.041667  0.333333      2.000000
  0.339286  0.041667  0.333333      2.000000
  0.375000  0.041667  0.333333      2.000000
  0.410714  0.041667  0.333333      2.000000
  0.446429  0.041667  0.333333      2.000000
  0.482143  0.041667  0.333333      2.000000
 -0.482143  0.041667  0.333333      2.000000
 -0.446429  0.041667  0.333333      2.000000
 -0.410714  0.041667  0.333333      2.000000
 -0.375000  0.041667  0.333333      2.000000
 -0.339286  0.041667  0.333333      2.000000
 -0.303571  0.041667  0.333333      2.000000
 -0.267857  0.041667  0.333333      2.000000
 -0.232143  0.041667  0.333333      2.000000
 -0.196429  0.041667  0.333333      2.000000
 -0.160714  0.041667  0.333333      2.000000
 -0.125000  0.041667  0.333333      2.000000
 -0.089286  0.041667  0.333333      2.000000
 -0.053571  0.041667  0.333333      2.000000
 -0.017857  0.041667  0.333333      2.000000
  0.017857  0.125000  0.333333      2.000000
  0.053571  0.125000  0.333333      2.000000
  0.089286  0.125000  0.333333      2.000000
  0.125000  0.125000  0.333333      2.000000
  0.160714  0.125000  0.333333      2.000000
  0.196429  0.125000  0.333333      2.000000
  0.232143  0.125000  0.333333      2.000000
  0.267857  0.125000  0.333333      2.000000
  0.303571  0.125000  0.333333      2.000000
  0.339286  0.125000  0.333333      2.000000
  0.375000  0.125000  0.333333      2.000000
  0.410714  0.125000  0.333333      2.000000
  0.446429  0.125000  0.333333      2.000000
  0.482143  0.125000  0.333333      2.000000
 -0.482143  0.125000  0.333333      2.000000
 -0.446429  0.125000  0.333333      2.000000
 -0.410714  0.125000  0.333333      2.000000
 -0.375000  0.125000  0.333333      2.000000
 -0.339286  0.125000  0.333333      2.000000
 -0.303571  0.125000  0.333333      2.000000
 -0.267857  0.125000  0.333333      2.000000
 -0.232143  0.125000  0.333333      2.000000
 -0.196429  0.125000  0.333333      2.000000
 -0.160714  0.125000  0.333333      2.000000
 -0.125000  0.125000  0.333333      2.000000
 -0.089286  0.125000  0.333333      2.000000
 -0.053571  0.125000  0.333333      2.000000
 -0.017857  0.125000  0.333333      2.000000
  0.017857  0.208333  0.333333      2.000000
  0.053571  0.208333  0.333333      2.000000
  0.089286  0.208333  0.333333      2.000000
  0.125000  0.208333  0.333333      2.000000
  0.160714  0.208333  0.333333      2.000000
  0.196429  0.208333  0.333333      2.000000
  0.232143  0.208333  0.333333      2.000000
  0.267857  0.208333  0.333333      2.000000
  0.303571  0.208333  0.333333      2.000000
  0.339286  0.208333  0.333333      2.000000
  0.375000  0.208333  0.333333      2.000000
  0.410714  0.208333  0.333333      2.000000
  0.446429  0.208333  0.333333      2.000000
  0.482143  0.208333  0.333333      2.000000
 -0.482143  0.208333  0.333333      2.000000
 -0.446429  0.208333  0.333333      2.000000
 -0.410714  0.208333  0.333333      2.000000
 -0.375000  0.208333  0.333333      2.000000
 -0.339286  0.208333  0.333333      2.000000
 -0.303571  0.208333  0.333333      2.000000
 -0.267857  0.208333  0.333333      2.000000
 -0.232143  0.208333  0.333333      2.000000
 -0.196429  0.208333  0.333333      2.000000
 -0.160714  0.208333  0.333333      2.000000
 -0.125000  0.208333  0.333333      2.000000
 -0.089286  0.208333  0.333333      2.000000
 -0.053571  0.208333  0.333333      2.000000
 -0.017857  0.208333  0.333333      2.000000
  0.017857  0.291667  0.333333      2.000000
  0.053571  0.291667  0.333333      2.000000
  0.089286  0.291667  0.333333      2.000000
  0.125000  0.291667  0.333333      2.000000
  0.160714  0.291667  0.333333      2.000000
  0.196429  0.291667  0.333333      2.000000
  0.232143  0.291667  0.333333      2.000000
  0.267857  0.291667  0.333333      2.000000
  0.303571  0.291667  0.333333      2.000000
  0.339286  0.291667  0.333333      2.000000
  0.375000  0.291667  0.333333      2.000000
  0.410714  0.291667  0.333333      2.000000
  0.446429  0.291667  0.333333      2.000000
  0.482143  0.291667  0.333333      2.000000
 -0.482143  0.291667  0.333333      2.000000
 -0.446429  0.291667  0.333333      2.000000
 -0.410714  0.291667  0.333333      2.000000
 -0.375000  0.291667  0.333333      2.000000
 -0.339286  0.291667  0.333333      2.000000
 -0.303571  0.291667  0.333333      2.000000
 -0.267857  0.291667  0.333333      2.000000
 -0.232143  0.291667  0.333333      2.000000
 -0.196429  0.291667  0.333333      2.000000
 -0.160714  0.291667  0.333333      2.000000
 -0.125000  0.291667  0.333333      2.000000
 -0.089286  0.291667  0.333333      2.000000
 -0.053571  0.291667  0.333333      2.000000
 -0.017857  0.291667  0.333333      2.000000
  0.017857  0.375000  0.333333      2.000000
  0.053571  0.375000  0.333333      2.000000
  0.089286  0.375000  0.333333      2.000000
  0.125000  0.375000  0.333333      2.000000
  0.160714  0.375000  0.333333      2.000000
  0.196429  0.375000  0.333333      2.000000
  0.232143  0.375000  0.333333      2.000000
  0.267857  0.375000  0.333333      2.000000
  0.303571  0.375000  0.333333      2.000000
  0.339286  0.375000  0.333333      2.000000
  0.375000  0.375000  0.333333      2.000000
  0.410714  0.375000  0.333333      2.000000
  0.446429  0.375000  0.333333      2.000000
  0.482143  0.375000  0.333333      2.000000
 -0.482143  0.375000  0.333333      2.000000
 -0.446429  0.375000  0.333333      2.000000
 -0.410714  0.375000  0.333333      2.000000
 -0.375000  0.375000  0.333333      2.000000
 -0.339286  0.375000  0.333333      2.000000
 -0.303571  0.375000  0.333333      2.000000
 -0.267857  0.375000  0.333333      2.000000
 -0.232143  0.375000  0.333333      2.000000
 -0.196429  0.375000  0.333333      2.000000
 -0.160714  0.375000  0.333333      2.000000
 -0.125000  0.375000  0.333333      2.000000
 -0.089286  0.375000  0.333333      2.000000
 -0.053571  0.375000  0.333333      2.000000
 -0.017857  0.375000  0.333333      2.000000
  0.017857  0.458333  0.333333      2.000000
  0.053571  0.458333  0.333333      2.000000
  0.089286  0.458333  0.333333      2.000000
  0.125000  0.458333  0.333333      2.000000
  0.160714  0.458333  0.333333      2.000000
  0.196429  0.458333  0.333333      2.000000
  0.232143  0.458333  0.333333      2.000000
  0.267857  0.458333  0.333333      2.000000
  0.303571  0.458333  0.333333      2.000000
  0.339286  0.458333  0.333333      2.000000
  0.375000  0.458333  0.333333      2.000000
  0.410714  0.458333  0.333333      2.000000
  0.446429  0.458333  0.333333      2.000000
  0.482143  0.458333  0.333333      2.000000
 -0.482143  0.458333  0.333333      2.000000
 -0.446429  0.458333  0.333333      2.000000
 -0.410714  0.458333  0.333333      2.000000
 -0.375000  0.458333  0.333333      2.000000
 -0.339286  0.458333  0.333333      2.000000
 -0.303571  0.458333  0.333333      2.000000
 -0.267857  0.458333  0.333333      2.000000
 -0.232143  0.458333  0.333333      2.000000
 -0.196429  0.458333  0.333333      2.000000
 -0.160714  0.458333  0.333333      2.000000
 -0.125000  0.458333  0.333333      2.000000
 -0.089286  0.458333  0.333333      2.000000
 -0.053571  0.458333  0.333333      2.000000
 -0.017857  0.458333  0.333333      2.000000
  0.017857 -0.458333  0.333333      2.000000
  0.053571 -0.458333  0.333333      2.000000
  0.089286 -0.458333  0.333333      2.000000
  0.125000 -0.458333  0.333333      2.000000
  0.160714 -0.458333  0.333333      2.000000
  0.196429 -0.458333  0.333333      2.000000
  0.232143 -0.458333  0.333333      2.000000
  0.267857 -0.458333  0.333333      2.000000
  0.303571 -0.458333  0.333333      2.000000
  0.339286 -0.458333  0.333333      2.000000
  0.375000 -0.458333  0.333333      2.000000
  0.410714 -0.458333  0.333333      2.000000
  0.446429 -0.458333  0.333333      2.000000
  0.482143 -0.458333  0.333333      2.000000
 -0.482143 -0.458333  0.333333      2.000000
 -0.446429 -0.458333  0.333333      2.000000
 -0.410714 -0.458333  0.333333      2.000000
 -0.375000 -0.458333  0.333333      2.000000
 -0.339286 -0.458333  0.333333      2.000000
 -0.303571 -0.458333  0.333333      2.000000
 -0.267857 -0.458333  0.333333      2.000000
 -0.232143 -0.458333  0.333333      2.000000
 -0.196429 -0.458333  0.333333      2.000000
 -0.160714 -0.458333  0.333333      2.000000
 -0.125000 -0.458333  0.333333      2.000000
 -0.089286 -0.458333  0.333333      2.000000
 -0.053571 -0.458333  0.333333      2.000000
 -0.017857 -0.458333  0.333333      2.000000
  0.017857 -0.375000  0.333333      2.000000
  0.053571 -0.375000  0.333333      2.000000
  0.089286 -0.375000  0.333333      2.000000
  0.125000 -0.375000  0.333333      2.000000
  0.160714 -0.375000  0.333333      2.000000
  0.196429 -0.375000  0.333333      2.000000
  0.232143 -0.375000  0.333333      2.000000
  0.267857 -0.375000  0.333333      2.000000
  0.303571 -0.375000  0.333333      2.000000
  0.339286 -0.375000  0.333333      2.000000
  0.375000 -0.375000  0.333333      2.000000
  0.410714 -0.375000  0.333333      2.000000
  0.446429 -0.375000  0.333333      2.000000
  0.482143 -0.375000  0.333333      2.000000
 -0.482143 -0.375000  0.333333      2.000000
 -0.446429 -0.375000  0.333333      2.000000
 -0.410714 -0.375000  0.333333      2.000000
 -0.375000 -0.375000  0.333333      2.000000
 -0.339286 -0.375000  0.333333      2.000000
 -0.303571 -0.375000  0.333333      2.000000
 -0.267857 -0.375000  0.333333      2.000000
 -0.232143 -0.375000  0.333333      2.000000
 -0.196429 -0.375000  0.333333      2.000000
 -0.160714 -0.375000  0.333333      2.000000
 -0.125000 -0.375000  0.333333      2.000000
 -0.089286 -0.375000  0.333333      2.000000
 -0.053571 -0.375000  0.333333      2.000000
 -0.017857 -0.375000  0.333333      2.000000
  0.017857 -0.291667  0.333333      2.000000
  0.053571 -0.291667  0.333333      2.000000
  0.089286 -0.291667  0.333333      2.000000
  0.125000 -0.291667  0.333333      2.000000
  0.160714 -0.291667  0.333333      2.000000
  0.196429 -0.291667  0.333333      2.000000
  0.232143 -0.291667  0.333333      2.000000
  0.267857 -0.291667  0.333333      2.000000
  0.303571 -0.291667  0.333333      2.000000
  0.339286 -0.291667  0.333333      2.000000
  0.375000 -0.291667  0.333333      2.000000
  0.410714 -0.291667  0.333333      2.000000
  0.446429 -0.291667  0.333333      2.000000
  0.482143 -0.291667  0.333333      2.000000
 -0.482143 -0.291667  0.333333      2.000000
 -0.446429 -0.291667  0.333333      2.000000
 -0.410714 -0.291667  0.333333      2.000000
 -0.375000 -0.291667  0.333333      2.000000
 -0.339286 -0.291667  0.333333      2.000000
 -0.303571 -0.291667  0.333333      2.000000
 -0.267857 -0.291667  0.333333      2.000000
 -0.232143 -0.291667  0.333333      2.000000
 -0.196429 -0.291667  0.333333      2.000000
 -0.160714 -0.291667  0.333333      2.000000
 -0.125000 -0.291667  0.333333      2.000000
 -0.089286 -0.291667  0.333333      2.000000
 -0.053571 -0.291667  0.333333      2.000000
 -0.017857 -0.291667  0.333333      2.000000
  0.017857 -0.208333  0.333333      2.000000
  0.053571 -0.208333  0.333333      2.000000
  0.089286 -0.208333  0.333333      2.000000
  0.125000 -0.208333  0.333333      2.000000
  0.160714 -0.208333  0.333333      2.000000
  0.196429 -0.208333  0.333333      2.000000
  0.232143 -0.208333  0.333333      2.000000
  0.267857 -0.208333  0.333333      2.000000
  0.303571 -0.208333  0.333333      2.000000
  0.339286 -0.208333  0.333333      2.000000
  0.375000 -0.208333  0.333333      2.000000
  0.410714 -0.208333  0.333333      2.000000
  0.446429 -0.208333  0.333333      2.000000
  0.482143 -0.208333  0.333333      2.000000
 -0.482143 -0.208333  0.333333      2.000000
 -0.446429 -0.208333  0.333333      2.000000
 -0.410714 -0.208333  0.333333      2.000000
 -0.375000 -0.208333  0.333333      2.000000
 -0.339286 -0.208333  0.333333      2.000000
 -0.303571 -0.208333  0.333333      2.000000
 -0.267857 -0.208333  0.333333      2.000000
 -0.232143 -0.208333  0.333333      2.000000
 -0.196429 -0.208333  0.333333      2.000000
 -0.160714 -0.208333  0.333333      2.000000
 -0.125000 -0.208333  0.333333      2.000000
 -0.089286 -0.208333  0.333333      2.000000
 -0.053571 -0.208333  0.333333      2.000000
 -0.017857 -0.208333  0.333333      2.000000
  0.017857 -0.125000  0.333333      2.000000
  0.053571 -0.125000  0.333333      2.000000
  0.089286 -0.125000  0.333333      2.000000
  0.125000 -0.125000  0.333333      2.000000
  0.160714 -0.125000  0.333333      2.000000
  0.196429 -0.125000  0.333333      2.000000
  0.232143 -0.125000  0.333333      2.000000
  0.267857 -0.125000  0.333333      2.000000
  0.303571 -0.125000  0.333333      2.000000
  0.339286 -0.125000  0.333333      2.000000
  0.375000 -0.125000  0.333333      2.000000
  0.410714 -0.125000  0.333333      2.000000
  0.446429 -0.125000  0.333333      2.000000
  0.482143 -0.125000  0.333333      2.000000
 -0.482143 -0.125000  0.333333      2.000000
 -0.446429 -0.125000  0.333333      2.000000
 -0.410714 -0.125000  0.333333      2.000000
 -0.375000 -0.125000  0.333333      2.000000
 -0.339286 -0.125000  0.333333      2.000000
 -0.303571 -0.125000  0.333333      2.000000
 -0.267857 -0.125000  0.333333      2.000000
 -0.232143 -0.125000  0.333333      2.000000
 -0.196429 -0.125000  0.333333      2.000000
 -0.160714 -0.125000  0.333333      2.000000
 -0.125000 -0.125000  0.333333      2.000000
 -0.089286 -0.125000  0.333333      2.000000
 -0.053571 -0.125000  0.333333      2.000000
 -0.017857 -0.125000  0.333333      2.000000
  0.017857 -0.041667  0.333333      2.000000
  0.053571 -0.041667  0.333333      2.000000
  0.089286 -0.041667  0.333333      2.000000
  0.125000 -0.041667  0.333333      2.000000
  0.160714 -0.041667  0.333333      2.000000
  0.196429 -0.041667  0.333333      2.000000
  0.232143 -0.041667  0.333333      2.000000
  0.267857 -0.041667  0.333333      2.000000
  0.303571 -0.041667  0.333333      2.000000
  0.339286 -0.041667  0.333333      2.000000
  0.375000 -0.041667  0.333333      2.000000
  0.410714 -0.041667  0.333333      2.000000
  0.446429 -0.041667  0.333333      2.000000
  0.482143 -0.041667  0.333333      2.000000
 -0.482143 -0.041667  0.333333      2.000000
 -0.446429 -0.041667  0.333333      2.000000
 -0.410714 -0.041667  0.333333      2.000000
 -0.375000 -0.041667  0.333333      2.000000
 -0.339286 -0.041667  0.333333      2.000000
 -0.303571 -0.041667  0.333333      2.000000
 -0.267857 -0.041667  0.333333      2.000000
 -0.232143 -0.041667  0.333333      2.000000
 -0.196429 -0.041667  0.333333      2.000000
 -0.160714 -0.041667  0.333333      2.000000
 -0.125000 -0.041667  0.333333      2.000000
 -0.089286 -0.041667  0.333333      2.000000
 -0.053571 -0.041667  0.333333      2.000000
 -0.017857 -0.041667  0.333333      2.000000
 
 Following cartesian coordinates:
            Coordinates               Weight
  0.006253  0.005979 -0.000002      2.000000
  0.018758  0.005979 -0.000007      2.000000
  0.031263  0.005978 -0.000012      2.000000
  0.043768  0.005978 -0.000017      2.000000
  0.056273  0.005977 -0.000021      2.000000
  0.068779  0.005977 -0.000026      2.000000
  0.081284  0.005977 -0.000031      2.000000
  0.093789  0.005976 -0.000035      2.000000
  0.106294  0.005976 -0.000040      2.000000
  0.118799  0.005975 -0.000045      2.000000
  0.131305  0.005975 -0.000050      2.000000
  0.143810  0.005975 -0.000054      2.000000
  0.156315  0.005974 -0.000059      2.000000
  0.168820  0.005974 -0.000064      2.000000
 -0.168820  0.005985  0.000064      2.000000
 -0.156315  0.005985  0.000059      2.000000
 -0.143810  0.005984  0.000054      2.000000
 -0.131305  0.005984  0.000050      2.000000
 -0.118799  0.005983  0.000045      2.000000
 -0.106294  0.005983  0.000040      2.000000
 -0.093789  0.005982  0.000035      2.000000
 -0.081284  0.005982  0.000031      2.000000
 -0.068779  0.005982  0.000026      2.000000
 -0.056273  0.005981  0.000021      2.000000
 -0.043768  0.005981  0.000017      2.000000
 -0.031263  0.005980  0.000012      2.000000
 -0.018758  0.005980  0.000007      2.000000
 -0.006253  0.005980  0.000002      2.000000
  0.006253  0.017938 -0.000002      2.000000
  0.018758  0.017937 -0.000007      2.000000
  0.031263  0.017937 -0.000012      2.000000
  0.043768  0.017936 -0.000017      2.000000
  0.056273  0.017936 -0.000021      2.000000
  0.068779  0.017936 -0.000026      2.000000
  0.081284  0.017935 -0.000031      2.000000
  0.093789  0.017935 -0.000035      2.000000
  0.106294  0.017934 -0.000040      2.000000
  0.118799  0.017934 -0.000045      2.000000
  0.131305  0.017934 -0.000050      2.000000
  0.143810  0.017933 -0.000054      2.000000
  0.156315  0.017933 -0.000059      2.000000
  0.168820  0.017932 -0.000064      2.000000
 -0.168820  0.017944  0.000064      2.000000
 -0.156315  0.017943  0.000059      2.000000
 -0.143810  0.017943  0.000054      2.000000
 -0.131305  0.017942  0.000050      2.000000
 -0.118799  0.017942  0.000045      2.000000
 -0.106294  0.017942  0.000040      2.000000
 -0.093789  0.017941  0.000035      2.000000
 -0.081284  0.017941  0.000031      2.000000
 -0.068779  0.017940  0.000026      2.000000
 -0.056273  0.017940  0.000021      2.000000
 -0.043768  0.017939  0.000017      2.000000
 -0.031263  0.017939  0.000012      2.000000
 -0.018758  0.017939  0.000007      2.000000
 -0.006253  0.017938  0.000002      2.000000
  0.006253  0.029896 -0.000002      2.000000
  0.018758  0.029896 -0.000007      2.000000
  0.031263  0.029896 -0.000012      2.000000
  0.043768  0.029895 -0.000017      2.000000
  0.056273  0.029895 -0.000021      2.000000
  0.068779  0.029894 -0.000026      2.000000
  0.081284  0.029894 -0.000031      2.000000
  0.093789  0.029893 -0.000035      2.000000
  0.106294  0.029893 -0.000040      2.000000
  0.118799  0.029893 -0.000045      2.000000
  0.131305  0.029892 -0.000050      2.000000
  0.143810  0.029892 -0.000054      2.000000
  0.156315  0.029891 -0.000059      2.000000
  0.168820  0.029891 -0.000064      2.000000
 -0.168820  0.029902  0.000064      2.000000
 -0.156315  0.029902  0.000059      2.000000
 -0.143810  0.029901  0.000054      2.000000
 -0.131305  0.029901  0.000050      2.000000
 -0.118799  0.029901  0.000045      2.000000
 -0.106294  0.029900  0.000040      2.000000
 -0.093789  0.029900  0.000035      2.000000
 -0.081284  0.029899  0.000031      2.000000
 -0.068779  0.029899  0.000026      2.000000
 -0.056273  0.029898  0.000021      2.000000
 -0.043768  0.029898  0.000017      2.000000
 -0.031263  0.029898  0.000012      2.000000
 -0.018758  0.029897  0.000007      2.000000
 -0.006253  0.029897  0.000002      2.000000
  0.006253  0.041855 -0.000002      2.000000
  0.018758  0.041855 -0.000007      2.000000
  0.031263  0.041854 -0.000012      2.000000
  0.043768  0.041854 -0.000017      2.000000
  0.056273  0.041853 -0.000021      2.000000
  0.068779  0.041853 -0.000026      2.000000
  0.081284  0.041853 -0.000031      2.000000
  0.093789  0.041852 -0.000035      2.000000
  0.106294  0.041852 -0.000040      2.000000
  0.118799  0.041851 -0.000045      2.000000
  0.131305  0.041851 -0.000050      2.000000
  0.143810  0.041850 -0.000054      2.000000
  0.156315  0.041850 -0.000059      2.000000
  0.168820  0.041850 -0.000064      2.000000
 -0.168820  0.041861  0.000064      2.000000
 -0.156315  0.041860  0.000059      2.000000
 -0.143810  0.041860  0.000054      2.000000
 -0.131305  0.041860  0.000050      2.000000
 -0.118799  0.041859  0.000045      2.000000
 -0.106294  0.041859  0.000040      2.000000
 -0.093789  0.041858  0.000035      2.000000
 -0.081284  0.041858  0.000031      2.000000
 -0.068779  0.041858  0.000026      2.000000
 -0.056273  0.041857  0.000021      2.000000
 -0.043768  0.041857  0.000017      2.000000
 -0.031263  0.041856  0.000012      2.000000
 -0.018758  0.041856  0.000007      2.000000
 -0.006253  0.041855  0.000002      2.000000
  0.006253  0.053814 -0.000002      2.000000
  0.018758  0.053813 -0.000007      2.000000
  0.031263  0.053813 -0.000012      2.000000
  0.043768  0.053812 -0.000017      2.000000
  0.056273  0.053812 -0.000021      2.000000
  0.068779  0.053812 -0.000026      2.000000
  0.081284  0.053811 -0.000031      2.000000
  0.093789  0.053811 -0.000035      2.000000
  0.106294  0.053810 -0.000040      2.000000
  0.118799  0.053810 -0.000045      2.000000
  0.131305  0.053809 -0.000050      2.000000
  0.143810  0.053809 -0.000054      2.000000
  0.156315  0.053809 -0.000059      2.000000
  0.168820  0.053808 -0.000064      2.000000
 -0.168820  0.053820  0.000064      2.000000
 -0.156315  0.053819  0.000059      2.000000
 -0.143810  0.053819  0.000054      2.000000
 -0.131305  0.053818  0.000050      2.000000
 -0.118799  0.053818  0.000045      2.000000
 -0.106294  0.053817  0.000040      2.000000
 -0.093789  0.053817  0.000035      2.000000
 -0.081284  0.053817  0.000031      2.000000
 -0.068779  0.053816  0.000026      2.000000
 -0.056273  0.053816  0.000021      2.000000
 -0.043768  0.053815  0.000017      2.000000
 -0.031263  0.053815  0.000012      2.000000
 -0.018758  0.053814  0.000007      2.000000
 -0.006253  0.053814  0.000002      2.000000
  0.006253  0.065772 -0.000002      2.000000
  0.018758  0.065772 -0.000007      2.000000
  0.031263  0.065771 -0.000012      2.000000
  0.043768  0.065771 -0.000017      2.000000
  0.056273  0.065771 -0.000021      2.000000
  0.068779  0.065770 -0.000026      2.000000
  0.081284  0.065770 -0.000031      2.000000
  0.093789  0.065769 -0.000035      2.000000
  0.106294  0.065769 -0.000040      2.000000
  0.118799  0.065769 -0.000045      2.000000
  0.131305  0.065768 -0.000050      2.000000
  0.143810  0.065768 -0.000054      2.000000
  0.156315  0.065767 -0.000059      2.000000
  0.168820  0.065767 -0.000064      2.000000
 -0.168820  0.065778  0.000064      2.000000
 -0.156315  0.065778  0.000059      2.000000
 -0.143810  0.065777  0.000054      2.000000
 -0.131305  0.065777  0.000050      2.000000
 -0.118799  0.065776  0.000045      2.000000
 -0.106294  0.065776  0.000040      2.000000
 -0.093789  0.065776  0.000035      2.000000
 -0.081284  0.065775  0.000031      2.000000
 -0.068779  0.065775  0.000026      2.000000
 -0.056273  0.065774  0.000021      2.000000
 -0.043768  0.065774  0.000017      2.000000
 -0.031263  0.065774  0.000012      2.000000
 -0.018758  0.065773  0.000007      2.000000
 -0.006253  0.065773  0.000002      2.000000
  0.006253  0.007092  0.012583      2.000000
  0.018758  0.007091  0.012579      2.000000
  0.031263  0.007091  0.012574      2.000000
  0.043768  0.007090  0.012569      2.000000
  0.056273  0.007090  0.012564      2.000000
  0.068779  0.007089  0.012560      2.000000
  0.081284  0.007089  0.012555      2.000000
  0.093789  0.007089  0.012550      2.000000
  0.106294  0.007088  0.012546      2.000000
  0.118799  0.007088  0.012541      2.000000
  0.131305  0.007087  0.012536      2.000000
  0.143810  0.007087  0.012531      2.000000
  0.156315  0.007087  0.012527      2.000000
  0.168820  0.007086  0.012522      2.000000
 -0.168820  0.007097  0.012649      2.000000
 -0.156315  0.007097  0.012645      2.000000
 -0.143810  0.007097  0.012640      2.000000
 -0.131305  0.007096  0.012635      2.000000
 -0.118799  0.007096  0.012631      2.000000
 -0.106294  0.007095  0.012626      2.000000
 -0.093789  0.007095  0.012621      2.000000
 -0.081284  0.007094  0.012616      2.000000
 -0.068779  0.007094  0.012612      2.000000
 -0.056273  0.007094  0.012607      2.000000
 -0.043768  0.007093  0.012602      2.000000
 -0.031263  0.007093  0.012598      2.000000
 -0.018758  0.007092  0.012593      2.000000
 -0.006253  0.007092  0.012588      2.000000
  0.006253  0.019050  0.012583      2.000000
  0.018758  0.019050  0.012579      2.000000
  0.031263  0.019049  0.012574      2.000000
  0.043768  0.019049  0.012569      2.000000
  0.056273  0.019049  0.012564      2.000000
  0.068779  0.019048  0.012560      2.000000
  0.081284  0.019048  0.012555      2.000000
  0.093789  0.019047  0.012550      2.000000
  0.106294  0.019047  0.012546      2.000000
  0.118799  0.019046  0.012541      2.000000
  0.131305  0.019046  0.012536      2.000000
  0.143810  0.019046  0.012531      2.000000
  0.156315  0.019045  0.012527      2.000000
  0.168820  0.019045  0.012522      2.000000
 -0.168820  0.019056  0.012649      2.000000
 -0.156315  0.019056  0.012645      2.000000
 -0.143810  0.019055  0.012640      2.000000
 -0.131305  0.019055  0.012635      2.000000
 -0.118799  0.019054  0.012631      2.000000
 -0.106294  0.019054  0.012626      2.000000
 -0.093789  0.019054  0.012621      2.000000
 -0.081284  0.019053  0.012616      2.000000
 -0.068779  0.019053  0.012612      2.000000
 -0.056273  0.019052  0.012607      2.000000
 -0.043768  0.019052  0.012602      2.000000
 -0.031263  0.019051  0.012598      2.000000
 -0.018758  0.019051  0.012593      2.000000
 -0.006253  0.019051  0.012588      2.000000
  0.006253  0.031009  0.012583      2.000000
  0.018758  0.031008  0.012579      2.000000
  0.031263  0.031008  0.012574      2.000000
  0.043768  0.031008  0.012569      2.000000
  0.056273  0.031007  0.012564      2.000000
  0.068779  0.031007  0.012560      2.000000
  0.081284  0.031006  0.012555      2.000000
  0.093789  0.031006  0.012550      2.000000
  0.106294  0.031005  0.012546      2.000000
  0.118799  0.031005  0.012541      2.000000
  0.131305  0.031005  0.012536      2.000000
  0.143810  0.031004  0.012531      2.000000
  0.156315  0.031004  0.012527      2.000000
  0.168820  0.031003  0.012522      2.000000
 -0.168820  0.031015  0.012649      2.000000
 -0.156315  0.031014  0.012645      2.000000
 -0.143810  0.031014  0.012640      2.000000
 -0.131305  0.031013  0.012635      2.000000
 -0.118799  0.031013  0.012631      2.000000
 -0.106294  0.031013  0.012626      2.000000
 -0.093789  0.031012  0.012621      2.000000
 -0.081284  0.031012  0.012616      2.000000
 -0.068779  0.031011  0.012612      2.000000
 -0.056273  0.031011  0.012607      2.000000
 -0.043768  0.031010  0.012602      2.000000
 -0.031263  0.031010  0.012598      2.000000
 -0.018758  0.031010  0.012593      2.000000
 -0.006253  0.031009  0.012588      2.000000
  0.006253  0.042967  0.012583      2.000000
  0.018758  0.042967  0.012579      2.000000
  0.031263  0.042967  0.012574      2.000000
  0.043768  0.042966  0.012569      2.000000
  0.056273  0.042966  0.012564      2.000000
  0.068779  0.042965  0.012560      2.000000
  0.081284  0.042965  0.012555      2.000000
  0.093789  0.042965  0.012550      2.000000
  0.106294  0.042964  0.012546      2.000000
  0.118799  0.042964  0.012541      2.000000
  0.131305  0.042963  0.012536      2.000000
  0.143810  0.042963  0.012531      2.000000
  0.156315  0.042962  0.012527      2.000000
  0.168820  0.042962  0.012522      2.000000
 -0.168820  0.042973  0.012649      2.000000
 -0.156315  0.042973  0.012645      2.000000
 -0.143810  0.042972  0.012640      2.000000
 -0.131305  0.042972  0.012635      2.000000
 -0.118799  0.042972  0.012631      2.000000
 -0.106294  0.042971  0.012626      2.000000
 -0.093789  0.042971  0.012621      2.000000
 -0.081284  0.042970  0.012616      2.000000
 -0.068779  0.042970  0.012612      2.000000
 -0.056273  0.042970  0.012607      2.000000
 -0.043768  0.042969  0.012602      2.000000
 -0.031263  0.042969  0.012598      2.000000
 -0.018758  0.042968  0.012593      2.000000
 -0.006253  0.042968  0.012588      2.000000
  0.006253  0.054926  0.012583      2.000000
  0.018758  0.054926  0.012579      2.000000
  0.031263  0.054925  0.012574      2.000000
  0.043768  0.054925  0.012569      2.000000
  0.056273  0.054924  0.012564      2.000000
  0.068779  0.054924  0.012560      2.000000
  0.081284  0.054924  0.012555      2.000000
  0.093789  0.054923  0.012550      2.000000
  0.106294  0.054923  0.012546      2.000000
  0.118799  0.054922  0.012541      2.000000
  0.131305  0.054922  0.012536      2.000000
  0.143810  0.054922  0.012531      2.000000
  0.156315  0.054921  0.012527      2.000000
  0.168820  0.054921  0.012522      2.000000
 -0.168820  0.054932  0.012649      2.000000
 -0.156315  0.054932  0.012645      2.000000
 -0.143810  0.054931  0.012640      2.000000
 -0.131305  0.054931  0.012635      2.000000
 -0.118799  0.054930  0.012631      2.000000
 -0.106294  0.054930  0.012626      2.000000
 -0.093789  0.054929  0.012621      2.000000
 -0.081284  0.054929  0.012616      2.000000
 -0.068779  0.054929  0.012612      2.000000
 -0.056273  0.054928  0.012607      2.000000
 -0.043768  0.054928  0.012602      2.000000
 -0.031263  0.054927  0.012598      2.000000
 -0.018758  0.054927  0.012593      2.000000
 -0.006253  0.054927  0.012588      2.000000
  0.006253  0.066885  0.012583      2.000000
  0.018758  0.066884  0.012579      2.000000
  0.031263  0.066884  0.012574      2.000000
  0.043768  0.066883  0.012569      2.000000
  0.056273  0.066883  0.012564      2.000000
  0.068779  0.066883  0.012560      2.000000
  0.081284  0.066882  0.012555      2.000000
  0.093789  0.066882  0.012550      2.000000
  0.106294  0.066881  0.012546      2.000000
  0.118799  0.066881  0.012541      2.000000
  0.131305  0.066881  0.012536      2.000000
  0.143810  0.066880  0.012531      2.000000
  0.156315  0.066880  0.012527      2.000000
  0.168820  0.066879  0.012522      2.000000
 -0.168820  0.066891  0.012649      2.000000
 -0.156315  0.066890  0.012645      2.000000
 -0.143810  0.066890  0.012640      2.000000
 -0.131305  0.066889  0.012635      2.000000
 -0.118799  0.066889  0.012631      2.000000
 -0.106294  0.066888  0.012626      2.000000
 -0.093789  0.066888  0.012621      2.000000
 -0.081284  0.066888  0.012616      2.000000
 -0.068779  0.066887  0.012612      2.000000
 -0.056273  0.066887  0.012607      2.000000
 -0.043768  0.066886  0.012602      2.000000
 -0.031263  0.066886  0.012598      2.000000
 -0.018758  0.066886  0.012593      2.000000
 -0.006253  0.066885  0.012588      2.000000
  0.006253 -0.064660  0.012583      2.000000
  0.018758 -0.064661  0.012579      2.000000
  0.031263 -0.064661  0.012574      2.000000
  0.043768 -0.064662  0.012569      2.000000
  0.056273 -0.064662  0.012564      2.000000
  0.068779 -0.064662  0.012560      2.000000
  0.081284 -0.064663  0.012555      2.000000
  0.093789 -0.064663  0.012550      2.000000
  0.106294 -0.064664  0.012546      2.000000
  0.118799 -0.064664  0.012541      2.000000
  0.131305 -0.064664  0.012536      2.000000
  0.143810 -0.064665  0.012531      2.000000
  0.156315 -0.064665  0.012527      2.000000
  0.168820 -0.064666  0.012522      2.000000
 -0.168820 -0.064654  0.012649      2.000000
 -0.156315 -0.064655  0.012645      2.000000
 -0.143810 -0.064655  0.012640      2.000000
 -0.131305 -0.064656  0.012635      2.000000
 -0.118799 -0.064656  0.012631      2.000000
 -0.106294 -0.064657  0.012626      2.000000
 -0.093789 -0.064657  0.012621      2.000000
 -0.081284 -0.064657  0.012616      2.000000
 -0.068779 -0.064658  0.012612      2.000000
 -0.056273 -0.064658  0.012607      2.000000
 -0.043768 -0.064659  0.012602      2.000000
 -0.031263 -0.064659  0.012598      2.000000
 -0.018758 -0.064659  0.012593      2.000000
 -0.006253 -0.064660  0.012588      2.000000
  0.006253 -0.052702  0.012583      2.000000
  0.018758 -0.052702  0.012579      2.000000
  0.031263 -0.052702  0.012574      2.000000
  0.043768 -0.052703  0.012569      2.000000
  0.056273 -0.052703  0.012564      2.000000
  0.068779 -0.052704  0.012560      2.000000
  0.081284 -0.052704  0.012555      2.000000
  0.093789 -0.052705  0.012550      2.000000
  0.106294 -0.052705  0.012546      2.000000
  0.118799 -0.052705  0.012541      2.000000
  0.131305 -0.052706  0.012536      2.000000
  0.143810 -0.052706  0.012531      2.000000
  0.156315 -0.052707  0.012527      2.000000
  0.168820 -0.052707  0.012522      2.000000
 -0.168820 -0.052696  0.012649      2.000000
 -0.156315 -0.052696  0.012645      2.000000
 -0.143810 -0.052697  0.012640      2.000000
 -0.131305 -0.052697  0.012635      2.000000
 -0.118799 -0.052697  0.012631      2.000000
 -0.106294 -0.052698  0.012626      2.000000
 -0.093789 -0.052698  0.012621      2.000000
 -0.081284 -0.052699  0.012616      2.000000
 -0.068779 -0.052699  0.012612      2.000000
 -0.056273 -0.052700  0.012607      2.000000
 -0.043768 -0.052700  0.012602      2.000000
 -0.031263 -0.052700  0.012598      2.000000
 -0.018758 -0.052701  0.012593      2.000000
 -0.006253 -0.052701  0.012588      2.000000
  0.006253 -0.040743  0.012583      2.000000
  0.018758 -0.040743  0.012579      2.000000
  0.031263 -0.040744  0.012574      2.000000
  0.043768 -0.040744  0.012569      2.000000
  0.056273 -0.040745  0.012564      2.000000
  0.068779 -0.040745  0.012560      2.000000
  0.081284 -0.040746  0.012555      2.000000
  0.093789 -0.040746  0.012550      2.000000
  0.106294 -0.040746  0.012546      2.000000
  0.118799 -0.040747  0.012541      2.000000
  0.131305 -0.040747  0.012536      2.000000
  0.143810 -0.040748  0.012531      2.000000
  0.156315 -0.040748  0.012527      2.000000
  0.168820 -0.040748  0.012522      2.000000
 -0.168820 -0.040737  0.012649      2.000000
 -0.156315 -0.040738  0.012645      2.000000
 -0.143810 -0.040738  0.012640      2.000000
 -0.131305 -0.040738  0.012635      2.000000
 -0.118799 -0.040739  0.012631      2.000000
 -0.106294 -0.040739  0.012626      2.000000
 -0.093789 -0.040740  0.012621      2.000000
 -0.081284 -0.040740  0.012616      2.000000
 -0.068779 -0.040741  0.012612      2.000000
 -0.056273 -0.040741  0.012607      2.000000
 -0.043768 -0.040741  0.012602      2.000000
 -0.031263 -0.040742  0.012598      2.000000
 -0.018758 -0.040742  0.012593      2.000000
 -0.006253 -0.040743  0.012588      2.000000
  0.006253 -0.028784  0.012583      2.000000
  0.018758 -0.028785  0.012579      2.000000
  0.031263 -0.028785  0.012574      2.000000
  0.043768 -0.028786  0.012569      2.000000
  0.056273 -0.028786  0.012564      2.000000
  0.068779 -0.028786  0.012560      2.000000
  0.081284 -0.028787  0.012555      2.000000
  0.093789 -0.028787  0.012550      2.000000
  0.106294 -0.028788  0.012546      2.000000
  0.118799 -0.028788  0.012541      2.000000
  0.131305 -0.028789  0.012536      2.000000
  0.143810 -0.028789  0.012531      2.000000
  0.156315 -0.028789  0.012527      2.000000
  0.168820 -0.028790  0.012522      2.000000
 -0.168820 -0.028779  0.012649      2.000000
 -0.156315 -0.028779  0.012645      2.000000
 -0.143810 -0.028779  0.012640      2.000000
 -0.131305 -0.028780  0.012635      2.000000
 -0.118799 -0.028780  0.012631      2.000000
 -0.106294 -0.028781  0.012626      2.000000
 -0.093789 -0.028781  0.012621      2.000000
 -0.081284 -0.028781  0.012616      2.000000
 -0.068779 -0.028782  0.012612      2.000000
 -0.056273 -0.028782  0.012607      2.000000
 -0.043768 -0.028783  0.012602      2.000000
 -0.031263 -0.028783  0.012598      2.000000
 -0.018758 -0.028784  0.012593      2.000000
 -0.006253 -0.028784  0.012588      2.000000
  0.006253 -0.016826  0.012583      2.000000
  0.018758 -0.016826  0.012579      2.000000
  0.031263 -0.016827  0.012574      2.000000
  0.043768 -0.016827  0.012569      2.000000
  0.056273 -0.016827  0.012564      2.000000
  0.068779 -0.016828  0.012560      2.000000
  0.081284 -0.016828  0.012555      2.000000
  0.093789 -0.016829  0.012550      2.000000
  0.106294 -0.016829  0.012546      2.000000
  0.118799 -0.016829  0.012541      2.000000
  0.131305 -0.016830  0.012536      2.000000
  0.143810 -0.016830  0.012531      2.000000
  0.156315 -0.016831  0.012527      2.000000
  0.168820 -0.016831  0.012522      2.000000
 -0.168820 -0.016820  0.012649      2.000000
 -0.156315 -0.016820  0.012645      2.000000
 -0.143810 -0.016821  0.012640      2.000000
 -0.131305 -0.016821  0.012635      2.000000
 -0.118799 -0.016822  0.012631      2.000000
 -0.106294 -0.016822  0.012626      2.000000
 -0.093789 -0.016822  0.012621      2.000000
 -0.081284 -0.016823  0.012616      2.000000
 -0.068779 -0.016823  0.012612      2.000000
 -0.056273 -0.016824  0.012607      2.000000
 -0.043768 -0.016824  0.012602      2.000000
 -0.031263 -0.016824  0.012598      2.000000
 -0.018758 -0.016825  0.012593      2.000000
 -0.006253 -0.016825  0.012588      2.000000
  0.006253 -0.004867  0.012583      2.000000
  0.018758 -0.004868  0.012579      2.000000
  0.031263 -0.004868  0.012574      2.000000
  0.043768 -0.004868  0.012569      2.000000
  0.056273 -0.004869  0.012564      2.000000
  0.068779 -0.004869  0.012560      2.000000
  0.081284 -0.004870  0.012555      2.000000
  0.093789 -0.004870  0.012550      2.000000
  0.106294 -0.004870  0.012546      2.000000
  0.118799 -0.004871  0.012541      2.000000
  0.131305 -0.004871  0.012536      2.000000
  0.143810 -0.004872  0.012531      2.000000
  0.156315 -0.004872  0.012527      2.000000
  0.168820 -0.004873  0.012522      2.000000
 -0.168820 -0.004861  0.012649      2.000000
 -0.156315 -0.004862  0.012645      2.000000
 -0.143810 -0.004862  0.012640      2.000000
 -0.131305 -0.004863  0.012635      2.000000
 -0.118799 -0.004863  0.012631      2.000000
 -0.106294 -0.004863  0.012626      2.000000
 -0.093789 -0.004864  0.012621      2.000000
 -0.081284 -0.004864  0.012616      2.000000
 -0.068779 -0.004865  0.012612      2.000000
 -0.056273 -0.004865  0.012607      2.000000
 -0.043768 -0.004865  0.012602      2.000000
 -0.031263 -0.004866  0.012598      2.000000
 -0.018758 -0.004866  0.012593      2.000000
 -0.006253 -0.004867  0.012588      2.000000
 


--------------------------------------------------------------------------------------------------------




 Dimension of arrays:
   k-points           NKPTS =    504   k-points in BZ     NKDIM =    504   number of bands    NBANDS=     64
   number of dos      NEDOS =    301   number of ions     NIONS =     16
   non local maximal  LDIM  =      4   non local SUM 2l+1 LMDIM =      8
   total plane-waves  NPLWV = 172800
   max r-space proj   IRMAX =   3663   max aug-charges    IRDMAX=  12957
   dimension x,y,z NGX =    20 NGY =   48 NGZ =  180
   dimension x,y,z NGXF=    40 NGYF=   96 NGZF=  360
   support grid    NGXF=    40 NGYF=   96 NGZF=  360
   ions per type =              16
   NGX,Y,Z   is equivalent  to a cutoff of  11.64, 11.41, 11.30 a.u.
   NGXF,Y,Z  is equivalent  to a cutoff of  23.28, 22.81, 22.60 a.u.

 SYSTEM =  Al fcc relaxation                       
 POSCAR =  Al16                                    

 Startparameter for this run:
   NWRITE =      2    write-flag & timer
   PREC   = accura    normal or accurate (medium, high low for compatibility)
   ISTART =      0    job   : 0-new  1-cont  2-samecut
   ICHARG =      2    charge: 1-file 2-atom 10-const
   ISPIN  =      1    spin polarized calculation?
   LNONCOLLINEAR =      F non collinear calculations
   LSORBIT =      F    spin-orbit coupling
   INIWAV =      1    electr: 0-lowe 1-rand  2-diag
   LASPH  =      F    aspherical Exc in radial PAW
   METAGGA=      F    non-selfconsistent MetaGGA calc.

 Electronic Relaxation 1
   ENCUT  =  400.0 eV  29.40 Ry    5.42 a.u.   4.66 11.41 43.19*2*pi/ulx,y,z
   ENINI  =  400.0     initial cutoff
   ENAUG  =  291.1 eV  augmentation charge cutoff
   NELM   =     60;   NELMIN=  4; NELMDL= -5     # of ELM steps 
   EDIFF  = 0.1E-05   stopping-criterion for ELM
   LREAL  =      T    real-space projection
   NLSPLINE    = F    spline interpolate recip. space projectors
   LCOMPAT=      F    compatible to vasp.4.4
   GGA_COMPAT  = T    GGA compatible to vasp.4.4-vasp.4.6
   LMAXPAW     = -100 max onsite density
   LMAXMIX     =    2 max onsite mixed and CHGCAR
   VOSKOWN=      0    Vosko Wilk Nusair interpolation
   ROPT   =   -0.00025
 Ionic relaxation
   EDIFFG = 0.1E-04   stopping-criterion for IOM
   NSW    =      0    number of steps for IOM
   NBLOCK =      1;   KBLOCK =      1    inner block; outer block 
   IBRION =     -1    ionic relax: 0-MD 1-quasi-New 2-CG
   NFREE  =      1    steps in history (QN), initial steepest desc. (CG)
   ISIF   =      3    stress and relaxation
   IWAVPR =     10    prediction:  0-non 1-charg 2-wave 3-comb
   ISYM   =      2    0-nonsym 1-usesym 2-fastsym
   LCORR  =      T    Harris-Foulkes like correction to forces

   POTIM  = 0.5000    time-step for ionic-motion
   TEIN   =    0.0    initial temperature
   TEBEG  =    0.0;   TEEND  =   0.0 temperature during run
   SMASS  =  -3.00    Nose mass-parameter (am)
   estimated Nose-frequenzy (Omega)   =  0.10E-29 period in steps =****** mass=  -0.186E-27a.u.
   SCALEE = 1.0000    scale energy and forces
   NPACO  =    256;   APACO  = 16.0  distance and # of slots for P.C.
   PSTRESS=    0.0 pullay stress

  Mass of Ions in am
   POMASS =  26.98
  Ionic Valenz
   ZVAL   =   3.00
  Atomic Wigner-Seitz radii
   RWIGS  =  -1.00
  virtual crystal weights 
   VCA    =   1.00
   NELECT =      48.0000    total number of electrons
   NUPDOWN=      -1.0000    fix difference up-down

 DOS related values:
   EMIN   =  10.00;   EMAX   =-10.00  energy-range for DOS
   EFERMI =   0.00
   ISMEAR =     1;   SIGMA  =   0.20  broadening in eV -4-tet -1-fermi 0-gaus

 Electronic relaxation 2 (details)
   IALGO  =     68    algorithm
   LDIAG  =      T    sub-space diagonalisation (order eigenvalues)
   LSUBROT=      F    optimize rotation matrix (better conditioning)
   TURBO    =      0    0=normal 1=particle mesh
   IRESTART =      0    0=no restart 2=restart with 2 vectors
   NREBOOT  =      0    no. of reboots
   NMIN     =      0    reboot dimension
   EREF     =   0.00    reference energy to select bands
   IMIX   =      4    mixing-type and parameters
     AMIX     =   0.40;   BMIX     =  1.00
     AMIX_MAG =   1.60;   BMIX_MAG =  1.00
     AMIN     =   0.10
     WC   =   100.;   INIMIX=   1;  MIXPRE=   1;  MAXMIX= -45

 Intra band minimization:
   WEIMIN = 0.0000     energy-eigenvalue tresh-hold
   EBREAK =  0.39E-08  absolut break condition
   DEPER  =   0.30     relativ break condition  

   TIME   =   0.40     timestep for ELM

  volume/ion in A,a.u.               =      32.94       222.31
  Fermi-wavevector in a.u.,A,eV,Ry     =   0.736533  1.391846  7.380903  0.542481
  Thomas-Fermi vector in A             =   1.829996
 
 Write flags
   LWAVE        =      F    write WAVECAR
   LDOWNSAMPLE  =      F    k-point downsampling of WAVECAR
   LCHARG       =      F    write CHGCAR
   LVTOT        =      F    write LOCPOT, total local potential
   LVHAR        =      F    write LOCPOT, Hartree potential only
   LELF         =      F    write electronic localiz. function (ELF)
   LORBIT       =      0    0 simple, 1 ext, 2 COOP (PROOUT), +10 PAW based schemes


 Dipole corrections
   LMONO  =      F    monopole corrections only (constant potential shift)
   LDIPOL =      F    correct potential (dipole corrections)
   IDIPOL =      0    1-x, 2-y, 3-z, 4-all directions 
   EPSILON=  1.0000000 bulk dielectric constant

 Exchange correlation treatment:
   GGA     =    --    GGA type
   LEXCH   =     8    internal setting for exchange type
   VOSKOWN=      0    Vosko Wilk Nusair interpolation
   LHFCALC =     F    Hartree Fock is set to
   LHFONE  =     F    Hartree Fock one center treatment
   AEXX    =    0.0000 exact exchange contribution

 Linear response parameters
   LEPSILON=     F    determine dielectric tensor
   LRPA    =     F    only Hartree local field effects (RPA)
   LNABLA  =     F    use nabla operator in PAW spheres
   LVEL    =     F    velocity operator in full k-point grid
   LINTERFAST=   F  fast interpolation
   KINTER  =     0    interpolate to denser k-point grid
   CSHIFT  =0.1000    complex shift for real part using Kramers Kronig
   OMEGAMAX=  -1.0    maximum frequency
   DEG_THRESHOLD= 0.2000000E-02 threshold for treating states as degnerate
   RTIME   =   -0.100 relaxation time in fs
  (WPLASMAI=    0.000 imaginary part of plasma frequency in eV, 0.658/RTIME)
   DFIELD  = 0.0000000 0.0000000 0.0000000 field for delta impulse in time
 
 Orbital magnetization related:
   ORBITALMAG=     F  switch on orbital magnetization
   LCHIMAG   =     F  perturbation theory with respect to B field
   DQ        =  0.001000  dq finite difference perturbation B field
   LLRAUG    =     F  two centre corrections for induced B field



--------------------------------------------------------------------------------------------------------


 Static calculation
 charge density and potential will be updated during run
 non-spin polarized calculation
 RMM-DIIS sequential band-by-band and
  variant of blocked Davidson during initial phase
 perform sub-space diagonalisation
    before iterative eigenvector-optimisation
 modified Broyden-mixing scheme, WC =      100.0
 initial mixing is a Kerker type mixing with AMIX =  0.4000 and BMIX =      1.0000
 Hartree-type preconditioning will be used
 using additional bands           40
 real space projection scheme for non local part
 use partial core corrections
 calculate Harris-corrections to forces 
   (improved forces if not selfconsistent)
 use gradient corrections 
 use of overlap-Matrix (Vanderbilt PP)
 Methfessel and Paxton  Order N= 1 SIGMA  =   0.20


--------------------------------------------------------------------------------------------------------


  energy-cutoff  :      400.00
  volume of cell :      527.09
      direct lattice vectors                 reciprocal lattice vectors
     2.855954575  0.000000000  0.000000000     0.350145625 -0.000011685 -0.000132205
    -0.000000000  6.968463833 -0.615931004     0.000000000  0.143503651  0.000000000
     0.010000000  0.000000000 26.485033167    -0.000000000  0.003337294  0.037757174

  length of vectors
     2.855954575  6.995631437 26.485035055     0.350145650  0.143503651  0.037904376


 
 k-points in units of 2pi/SCALE and weight: Automatic kpoint scheme                 
   0.00625260  0.00597911 -0.00000236       0.002
   0.01875780  0.00597869 -0.00000708       0.002
   0.03126300  0.00597828 -0.00001180       0.002
   0.04376820  0.00597786 -0.00001653       0.002
   0.05627340  0.00597744 -0.00002125       0.002
   0.06877860  0.00597702 -0.00002597       0.002
   0.08128381  0.00597661 -0.00003069       0.002
   0.09378901  0.00597619 -0.00003541       0.002
   0.10629421  0.00597577 -0.00004013       0.002
   0.11879941  0.00597535 -0.00004486       0.002
   0.13130461  0.00597494 -0.00004958       0.002
   0.14380981  0.00597452 -0.00005430       0.002
   0.15631501  0.00597410 -0.00005902       0.002
   0.16882021  0.00597368 -0.00006374       0.002
  -0.16882021  0.00598495  0.00006374       0.002
  -0.15631501  0.00598454  0.00005902       0.002
  -0.14380981  0.00598412  0.00005430       0.002
  -0.13130461  0.00598370  0.00004958       0.002
  -0.11879941  0.00598328  0.00004486       0.002
  -0.10629421  0.00598287  0.00004013       0.002
  -0.09378901  0.00598245  0.00003541       0.002
  -0.08128381  0.00598203  0.00003069       0.002
  -0.06877860  0.00598161  0.00002597       0.002
  -0.05627340  0.00598120  0.00002125       0.002
  -0.04376820  0.00598078  0.00001653       0.002
  -0.03126300  0.00598036  0.00001180       0.002
  -0.01875780  0.00597994  0.00000708       0.002
  -0.00625260  0.00597953  0.00000236       0.002
   0.00625260  0.01793775 -0.00000236       0.002
   0.01875780  0.01793733 -0.00000708       0.002
   0.03126300  0.01793691 -0.00001180       0.002
   0.04376820  0.01793650 -0.00001653       0.002
   0.05627340  0.01793608 -0.00002125       0.002
   0.06877860  0.01793566 -0.00002597       0.002
   0.08128381  0.01793524 -0.00003069       0.002
   0.09378901  0.01793483 -0.00003541       0.002
   0.10629421  0.01793441 -0.00004013       0.002
   0.11879941  0.01793399 -0.00004486       0.002
   0.13130461  0.01793357 -0.00004958       0.002
   0.14380981  0.01793316 -0.00005430       0.002
   0.15631501  0.01793274 -0.00005902       0.002
   0.16882021  0.01793232 -0.00006374       0.002
  -0.16882021  0.01794359  0.00006374       0.002
  -0.15631501  0.01794317  0.00005902       0.002
  -0.14380981  0.01794276  0.00005430       0.002
  -0.13130461  0.01794234  0.00004958       0.002
  -0.11879941  0.01794192  0.00004486       0.002
  -0.10629421  0.01794150  0.00004013       0.002
  -0.09378901  0.01794109  0.00003541       0.002
  -0.08128381  0.01794067  0.00003069       0.002
  -0.06877860  0.01794025  0.00002597       0.002
  -0.05627340  0.01793983  0.00002125       0.002
  -0.04376820  0.01793942  0.00001653       0.002
  -0.03126300  0.01793900  0.00001180       0.002
  -0.01875780  0.01793858  0.00000708       0.002
  -0.00625260  0.01793817  0.00000236       0.002
   0.00625260  0.02989639 -0.00000236       0.002
   0.01875780  0.02989597 -0.00000708       0.002
   0.03126300  0.02989555 -0.00001180       0.002
   0.04376820  0.02989513 -0.00001653       0.002
   0.05627340  0.02989472 -0.00002125       0.002
   0.06877860  0.02989430 -0.00002597       0.002
   0.08128381  0.02989388 -0.00003069       0.002
   0.09378901  0.02989346 -0.00003541       0.002
   0.10629421  0.02989305 -0.00004013       0.002
   0.11879941  0.02989263 -0.00004486       0.002
   0.13130461  0.02989221 -0.00004958       0.002
   0.14380981  0.02989179 -0.00005430       0.002
   0.15631501  0.02989138 -0.00005902       0.002
   0.16882021  0.02989096 -0.00006374       0.002
  -0.16882021  0.02990223  0.00006374       0.002
  -0.15631501  0.02990181  0.00005902       0.002
  -0.14380981  0.02990139  0.00005430       0.002
  -0.13130461  0.02990098  0.00004958       0.002
  -0.11879941  0.02990056  0.00004486       0.002
  -0.10629421  0.02990014  0.00004013       0.002
  -0.09378901  0.02989972  0.00003541       0.002
  -0.08128381  0.02989931  0.00003069       0.002
  -0.06877860  0.02989889  0.00002597       0.002
  -0.05627340  0.02989847  0.00002125       0.002
  -0.04376820  0.02989805  0.00001653       0.002
  -0.03126300  0.02989764  0.00001180       0.002
  -0.01875780  0.02989722  0.00000708       0.002
  -0.00625260  0.02989680  0.00000236       0.002
   0.00625260  0.04185502 -0.00000236       0.002
   0.01875780  0.04185461 -0.00000708       0.002
   0.03126300  0.04185419 -0.00001180       0.002
   0.04376820  0.04185377 -0.00001653       0.002
   0.05627340  0.04185335 -0.00002125       0.002
   0.06877860  0.04185294 -0.00002597       0.002
   0.08128381  0.04185252 -0.00003069       0.002
   0.09378901  0.04185210 -0.00003541       0.002
   0.10629421  0.04185168 -0.00004013       0.002
   0.11879941  0.04185127 -0.00004486       0.002
   0.13130461  0.04185085 -0.00004958       0.002
   0.14380981  0.04185043 -0.00005430       0.002
   0.15631501  0.04185001 -0.00005902       0.002
   0.16882021  0.04184960 -0.00006374       0.002
  -0.16882021  0.04186087  0.00006374       0.002
  -0.15631501  0.04186045  0.00005902       0.002
  -0.14380981  0.04186003  0.00005430       0.002
  -0.13130461  0.04185961  0.00004958       0.002
  -0.11879941  0.04185920  0.00004486       0.002
  -0.10629421  0.04185878  0.00004013       0.002
  -0.09378901  0.04185836  0.00003541       0.002
  -0.08128381  0.04185794  0.00003069       0.002
  -0.06877860  0.04185753  0.00002597       0.002
  -0.05627340  0.04185711  0.00002125       0.002
  -0.04376820  0.04185669  0.00001653       0.002
  -0.03126300  0.04185627  0.00001180       0.002
  -0.01875780  0.04185586  0.00000708       0.002
  -0.00625260  0.04185544  0.00000236       0.002
   0.00625260  0.05381366 -0.00000236       0.002
   0.01875780  0.05381324 -0.00000708       0.002
   0.03126300  0.05381283 -0.00001180       0.002
   0.04376820  0.05381241 -0.00001653       0.002
   0.05627340  0.05381199 -0.00002125       0.002
   0.06877860  0.05381157 -0.00002597       0.002
   0.08128381  0.05381116 -0.00003069       0.002
   0.09378901  0.05381074 -0.00003541       0.002
   0.10629421  0.05381032 -0.00004013       0.002
   0.11879941  0.05380990 -0.00004486       0.002
   0.13130461  0.05380949 -0.00004958       0.002
   0.14380981  0.05380907 -0.00005430       0.002
   0.15631501  0.05380865 -0.00005902       0.002
   0.16882021  0.05380823 -0.00006374       0.002
  -0.16882021  0.05381950  0.00006374       0.002
  -0.15631501  0.05381909  0.00005902       0.002
  -0.14380981  0.05381867  0.00005430       0.002
  -0.13130461  0.05381825  0.00004958       0.002
  -0.11879941  0.05381783  0.00004486       0.002
  -0.10629421  0.05381742  0.00004013       0.002
  -0.09378901  0.05381700  0.00003541       0.002
  -0.08128381  0.05381658  0.00003069       0.002
  -0.06877860  0.05381616  0.00002597       0.002
  -0.05627340  0.05381575  0.00002125       0.002
  -0.04376820  0.05381533  0.00001653       0.002
  -0.03126300  0.05381491  0.00001180       0.002
  -0.01875780  0.05381450  0.00000708       0.002
  -0.00625260  0.05381408  0.00000236       0.002
   0.00625260  0.06577230 -0.00000236       0.002
   0.01875780  0.06577188 -0.00000708       0.002
   0.03126300  0.06577146 -0.00001180       0.002
   0.04376820  0.06577105 -0.00001653       0.002
   0.05627340  0.06577063 -0.00002125       0.002
   0.06877860  0.06577021 -0.00002597       0.002
   0.08128381  0.06576979 -0.00003069       0.002
   0.09378901  0.06576938 -0.00003541       0.002
   0.10629421  0.06576896 -0.00004013       0.002
   0.11879941  0.06576854 -0.00004486       0.002
   0.13130461  0.06576812 -0.00004958       0.002
   0.14380981  0.06576771 -0.00005430       0.002
   0.15631501  0.06576729 -0.00005902       0.002
   0.16882021  0.06576687 -0.00006374       0.002
  -0.16882021  0.06577814  0.00006374       0.002
  -0.15631501  0.06577772  0.00005902       0.002
  -0.14380981  0.06577731  0.00005430       0.002
  -0.13130461  0.06577689  0.00004958       0.002
  -0.11879941  0.06577647  0.00004486       0.002
  -0.10629421  0.06577605  0.00004013       0.002
  -0.09378901  0.06577564  0.00003541       0.002
  -0.08128381  0.06577522  0.00003069       0.002
  -0.06877860  0.06577480  0.00002597       0.002
  -0.05627340  0.06577438  0.00002125       0.002
  -0.04376820  0.06577397  0.00001653       0.002
  -0.03126300  0.06577355  0.00001180       0.002
  -0.01875780  0.06577313  0.00000708       0.002
  -0.00625260  0.06577272  0.00000236       0.002
   0.00625260  0.00709154  0.01258336       0.002
   0.01875780  0.00709112  0.01257864       0.002
   0.03126300  0.00709071  0.01257392       0.002
   0.04376820  0.00709029  0.01256920       0.002
   0.05627340  0.00708987  0.01256448       0.002
   0.06877860  0.00708945  0.01255976       0.002
   0.08128381  0.00708904  0.01255503       0.002
   0.09378901  0.00708862  0.01255031       0.002
   0.10629421  0.00708820  0.01254559       0.002
   0.11879941  0.00708779  0.01254087       0.002
   0.13130461  0.00708737  0.01253615       0.002
   0.14380981  0.00708695  0.01253143       0.002
   0.15631501  0.00708653  0.01252670       0.002
   0.16882021  0.00708612  0.01252198       0.002
  -0.16882021  0.00709738  0.01264947       0.002
  -0.15631501  0.00709697  0.01264474       0.002
  -0.14380981  0.00709655  0.01264002       0.002
  -0.13130461  0.00709613  0.01263530       0.002
  -0.11879941  0.00709571  0.01263058       0.002
  -0.10629421  0.00709530  0.01262586       0.002
  -0.09378901  0.00709488  0.01262114       0.002
  -0.08128381  0.00709446  0.01261642       0.002
  -0.06877860  0.00709405  0.01261169       0.002
  -0.05627340  0.00709363  0.01260697       0.002
  -0.04376820  0.00709321  0.01260225       0.002
  -0.03126300  0.00709279  0.01259753       0.002
  -0.01875780  0.00709238  0.01259281       0.002
  -0.00625260  0.00709196  0.01258809       0.002
   0.00625260  0.01905018  0.01258336       0.002
   0.01875780  0.01904976  0.01257864       0.002
   0.03126300  0.01904934  0.01257392       0.002
   0.04376820  0.01904893  0.01256920       0.002
   0.05627340  0.01904851  0.01256448       0.002
   0.06877860  0.01904809  0.01255976       0.002
   0.08128381  0.01904768  0.01255503       0.002
   0.09378901  0.01904726  0.01255031       0.002
   0.10629421  0.01904684  0.01254559       0.002
   0.11879941  0.01904642  0.01254087       0.002
   0.13130461  0.01904601  0.01253615       0.002
   0.14380981  0.01904559  0.01253143       0.002
   0.15631501  0.01904517  0.01252670       0.002
   0.16882021  0.01904475  0.01252198       0.002
  -0.16882021  0.01905602  0.01264947       0.002
  -0.15631501  0.01905560  0.01264474       0.002
  -0.14380981  0.01905519  0.01264002       0.002
  -0.13130461  0.01905477  0.01263530       0.002
  -0.11879941  0.01905435  0.01263058       0.002
  -0.10629421  0.01905394  0.01262586       0.002
  -0.09378901  0.01905352  0.01262114       0.002
  -0.08128381  0.01905310  0.01261642       0.002
  -0.06877860  0.01905268  0.01261169       0.002
  -0.05627340  0.01905227  0.01260697       0.002
  -0.04376820  0.01905185  0.01260225       0.002
  -0.03126300  0.01905143  0.01259753       0.002
  -0.01875780  0.01905101  0.01259281       0.002
  -0.00625260  0.01905060  0.01258809       0.002
   0.00625260  0.03100882  0.01258336       0.002
   0.01875780  0.03100840  0.01257864       0.002
   0.03126300  0.03100798  0.01257392       0.002
   0.04376820  0.03100756  0.01256920       0.002
   0.05627340  0.03100715  0.01256448       0.002
   0.06877860  0.03100673  0.01255976       0.002
   0.08128381  0.03100631  0.01255503       0.002
   0.09378901  0.03100590  0.01255031       0.002
   0.10629421  0.03100548  0.01254559       0.002
   0.11879941  0.03100506  0.01254087       0.002
   0.13130461  0.03100464  0.01253615       0.002
   0.14380981  0.03100423  0.01253143       0.002
   0.15631501  0.03100381  0.01252670       0.002
   0.16882021  0.03100339  0.01252198       0.002
  -0.16882021  0.03101466  0.01264947       0.002
  -0.15631501  0.03101424  0.01264474       0.002
  -0.14380981  0.03101382  0.01264002       0.002
  -0.13130461  0.03101341  0.01263530       0.002
  -0.11879941  0.03101299  0.01263058       0.002
  -0.10629421  0.03101257  0.01262586       0.002
  -0.09378901  0.03101216  0.01262114       0.002
  -0.08128381  0.03101174  0.01261642       0.002
  -0.06877860  0.03101132  0.01261169       0.002
  -0.05627340  0.03101090  0.01260697       0.002
  -0.04376820  0.03101049  0.01260225       0.002
  -0.03126300  0.03101007  0.01259753       0.002
  -0.01875780  0.03100965  0.01259281       0.002
  -0.00625260  0.03100923  0.01258809       0.002
   0.00625260  0.04296745  0.01258336       0.002
   0.01875780  0.04296704  0.01257864       0.002
   0.03126300  0.04296662  0.01257392       0.002
   0.04376820  0.04296620  0.01256920       0.002
   0.05627340  0.04296578  0.01256448       0.002
   0.06877860  0.04296537  0.01255976       0.002
   0.08128381  0.04296495  0.01255503       0.002
   0.09378901  0.04296453  0.01255031       0.002
   0.10629421  0.04296412  0.01254559       0.002
   0.11879941  0.04296370  0.01254087       0.002
   0.13130461  0.04296328  0.01253615       0.002
   0.14380981  0.04296286  0.01253143       0.002
   0.15631501  0.04296245  0.01252670       0.002
   0.16882021  0.04296203  0.01252198       0.002
  -0.16882021  0.04297330  0.01264947       0.002
  -0.15631501  0.04297288  0.01264474       0.002
  -0.14380981  0.04297246  0.01264002       0.002
  -0.13130461  0.04297204  0.01263530       0.002
  -0.11879941  0.04297163  0.01263058       0.002
  -0.10629421  0.04297121  0.01262586       0.002
  -0.09378901  0.04297079  0.01262114       0.002
  -0.08128381  0.04297038  0.01261642       0.002
  -0.06877860  0.04296996  0.01261169       0.002
  -0.05627340  0.04296954  0.01260697       0.002
  -0.04376820  0.04296912  0.01260225       0.002
  -0.03126300  0.04296871  0.01259753       0.002
  -0.01875780  0.04296829  0.01259281       0.002
  -0.00625260  0.04296787  0.01258809       0.002
   0.00625260  0.05492609  0.01258336       0.002
   0.01875780  0.05492567  0.01257864       0.002
   0.03126300  0.05492526  0.01257392       0.002
   0.04376820  0.05492484  0.01256920       0.002
   0.05627340  0.05492442  0.01256448       0.002
   0.06877860  0.05492401  0.01255976       0.002
   0.08128381  0.05492359  0.01255503       0.002
   0.09378901  0.05492317  0.01255031       0.002
   0.10629421  0.05492275  0.01254559       0.002
   0.11879941  0.05492234  0.01254087       0.002
   0.13130461  0.05492192  0.01253615       0.002
[...]
     33       4.8143     -0.00000
     34       5.2867     -0.00000
     35       5.4736     -0.00000
     36       5.5737     -0.00000
     37       6.0192     -0.00000
     38       6.0402     -0.00000
     39       6.2198     -0.00000
     40       6.2499     -0.00000
     41       6.3039     -0.00000
     42       6.5065     -0.00000
     43       6.6666     -0.00000
     44       6.7223     -0.00000
     45       6.8547     -0.00000
     46       7.1427     -0.00000
     47       7.2147     -0.00000
     48       7.2671     -0.00000
     49       7.5563      0.00000
     50       7.7780      0.00000
     51       7.9061      0.00000
     52       8.0199      0.00000
     53       8.1378      0.00000
     54       8.3370      0.00000
     55       8.4795      0.00000
     56       8.6332      0.00000
     57       8.8344      0.00000
     58       8.8932      0.00000
     59       9.2829      0.00000
     60       9.3316      0.00000
     61       9.4156      0.00000
     62       9.6061      0.00000
     63       9.7822      0.00000
     64      10.3744      0.00000

 k-point   501 :      -0.1250   -0.0417    0.3333
  band No.  band energies     occupation 
      1      -8.6683      2.00000
      2      -8.0748      2.00000
      3      -7.1435      2.00000
      4      -5.9922      2.00000
      5      -5.8927      2.00000
      6      -5.4393      2.00000
      7      -5.3323      2.00000
      8      -4.8731      2.00000
      9      -4.6453      2.00000
     10      -4.2311      2.00000
     11      -3.8605      2.00000
     12      -3.3649      2.00000
     13      -2.7328      2.00000
     14      -2.3746      2.00000
     15      -1.8176      2.00000
     16      -1.0371      2.00000
     17      -0.7190      2.00000
     18      -0.0674      2.00000
     19       0.3284      2.00000
     20       1.2985      2.00001
     21       1.7892      2.06279
     22       2.4248     -0.01139
     23       2.5239     -0.00149
     24       3.0165     -0.00000
     25       3.2447     -0.00000
     26       3.3785     -0.00000
     27       3.7200     -0.00000
     28       3.9028     -0.00000
     29       4.0358     -0.00000
     30       4.2226     -0.00000
     31       4.4119     -0.00000
     32       4.6467     -0.00000
     33       4.9926     -0.00000
     34       5.2532     -0.00000
     35       5.5399     -0.00000
     36       5.7859     -0.00000
     37       6.0764     -0.00000
     38       6.1529     -0.00000
     39       6.2314     -0.00000
     40       6.5292     -0.00000
     41       6.6487     -0.00000
     42       6.8340     -0.00000
     43       7.1173     -0.00000
     44       7.2096     -0.00000
     45       7.5086      0.00000
     46       7.5727      0.00000
     47       7.6405      0.00000
     48       7.7077      0.00000
     49       7.8747      0.00000
     50       8.0351      0.00000
     51       8.1801      0.00000
     52       8.3210      0.00000
     53       8.4364      0.00000
     54       8.6602      0.00000
     55       8.7317      0.00000
     56       8.8602      0.00000
     57       9.1138      0.00000
     58       9.1783      0.00000
     59       9.3421      0.00000
     60       9.4562      0.00000
     61       9.6473      0.00000
     62       9.8816      0.00000
     63       9.9240      0.00000
     64      10.1405      0.00000

 k-point   502 :      -0.0893   -0.0417    0.3333
  band No.  band energies     occupation 
      1      -8.8068      2.00000
      2      -8.2129      2.00000
      3      -7.2808      2.00000
      4      -6.1284      2.00000
      5      -6.0287      2.00000
      6      -5.5747      2.00000
      7      -5.4676      2.00000
      8      -5.0079      2.00000
      9      -4.7804      2.00000
     10      -4.3657      2.00000
     11      -3.9944      2.00000
     12      -3.4987      2.00000
     13      -2.8662      2.00000
     14      -2.5080      2.00000
     15      -1.9505      2.00000
     16      -1.1677      2.00000
     17      -0.8482      2.00000
     18      -0.1981      2.00000
     19       0.2000      2.00000
     20       1.1723      2.00000
     21       1.6643      2.03692
     22       2.3027     -0.05617
     23       2.4043     -0.01608
     24       2.9024     -0.00000
     25       3.1256     -0.00000
     26       3.2611     -0.00000
     27       3.6089     -0.00000
     28       3.8840     -0.00000
     29       3.9340     -0.00000
     30       4.3445     -0.00000
     31       4.6649     -0.00000
     32       4.9209     -0.00000
     33       5.1703     -0.00000
     34       5.3108     -0.00000
     35       5.7961     -0.00000
     36       5.8822     -0.00000
     37       6.0032     -0.00000
     38       6.1521     -0.00000
     39       6.4319     -0.00000
     40       6.5270     -0.00000
     41       6.9242     -0.00000
     42       7.0431     -0.00000
     43       7.4662      0.00000
     44       7.5488      0.00000
     45       7.7619      0.00000
     46       7.9742      0.00000
     47       8.0568      0.00000
     48       8.1779      0.00000
     49       8.2769      0.00000
     50       8.5322      0.00000
     51       8.5895      0.00000
     52       8.6746      0.00000
     53       8.8063      0.00000
     54       9.0120      0.00000
     55       9.0851      0.00000
     56       9.2187      0.00000
     57       9.3179      0.00000
     58       9.4735      0.00000
     59       9.6782      0.00000
     60       9.8076      0.00000
     61      10.0091      0.00000
     62      10.1257      0.00000
     63      10.1857      0.00000
     64      10.8701      0.00000

 k-point   503 :      -0.0536   -0.0417    0.3333
  band No.  band energies     occupation 
      1      -8.8992      2.00000
      2      -8.3050      2.00000
      3      -7.3724      2.00000
      4      -6.2193      2.00000
      5      -6.1195      2.00000
      6      -5.6650      2.00000
      7      -5.5579      2.00000
      8      -5.0979      2.00000
      9      -4.8705      2.00000
     10      -4.4556      2.00000
     11      -4.0838      2.00000
     12      -3.5879      2.00000
     13      -2.9552      2.00000
     14      -2.5971      2.00000
     15      -2.0393      2.00000
     16      -1.2550      2.00000
     17      -0.9345      2.00000
     18      -0.2855      2.00000
     19       0.1141      2.00000
     20       1.0876      2.00000
     21       1.5802      2.01056
     22       2.2200     -0.06269
     23       2.3220     -0.04735
     24       2.8236     -0.00000
     25       3.0442     -0.00000
     26       3.1812     -0.00000
     27       3.5305     -0.00000
     28       3.8287     -0.00000
     29       3.8600     -0.00000
     30       4.2722     -0.00000
     31       4.6275     -0.00000
     32       4.9604     -0.00000
     33       5.1112     -0.00000
     34       5.6424     -0.00000
     35       5.8234     -0.00000
     36       5.9795     -0.00000
     37       6.2033     -0.00000
     38       6.2609     -0.00000
     39       6.4032     -0.00000
     40       6.7858     -0.00000
     41       7.2444     -0.00000
     42       7.4126     -0.00000
     43       7.4489     -0.00000
     44       7.7135      0.00000
     45       7.9001      0.00000
     46       8.0672      0.00000
     47       8.1640      0.00000
     48       8.4300      0.00000
     49       8.7138      0.00000
     50       8.9167      0.00000
     51       9.0640      0.00000
     52       9.1090      0.00000
     53       9.1728      0.00000
     54       9.2490      0.00000
     55       9.5808      0.00000
     56       9.6423      0.00000
     57       9.7082      0.00000
     58       9.8590      0.00000
     59      10.0100      0.00000
     60      10.0647      0.00000
     61      10.2870      0.00000
     62      10.6298      0.00000
     63      10.9850      0.00000
     64      11.2473      0.00000

 k-point   504 :      -0.0179   -0.0417    0.3333
  band No.  band energies     occupation 
      1      -8.9455      2.00000
      2      -8.3511      2.00000
      3      -7.4183      2.00000
      4      -6.2648      2.00000
      5      -6.1649      2.00000
      6      -5.7101      2.00000
      7      -5.6031      2.00000
      8      -5.1429      2.00000
      9      -4.9156      2.00000
     10      -4.5005      2.00000
     11      -4.1285      2.00000
     12      -3.6326      2.00000
     13      -2.9997      2.00000
     14      -2.6417      2.00000
     15      -2.0838      2.00000
     16      -1.2986      2.00000
     17      -0.9777      2.00000
     18      -0.3292      2.00000
     19       0.0712      2.00000
     20       1.0451      2.00000
     21       1.5380      2.00472
     22       2.1783     -0.01093
     23       2.2805     -0.06503
     24       2.7836     -0.00000
     25       3.0031     -0.00000
     26       3.1409     -0.00000
     27       3.4907     -0.00000
     28       3.7959     -0.00000
     29       3.8224     -0.00000
     30       4.2332     -0.00000
     31       4.5991     -0.00000
     32       4.9378     -0.00000
     33       5.0777     -0.00000
     34       5.6365     -0.00000
     35       5.7920     -0.00000
     36       5.9561     -0.00000
     37       6.2133     -0.00000
     38       6.3181     -0.00000
     39       6.5907     -0.00000
     40       7.2159     -0.00000
     41       7.3617     -0.00000
     42       7.4533     -0.00000
     43       7.6948      0.00000
     44       7.9154      0.00000
     45       8.0534      0.00000
     46       8.1208      0.00000
     47       8.2024      0.00000
     48       8.6733      0.00000
     49       8.7327      0.00000
     50       8.9041      0.00000
     51       9.0013      0.00000
     52       9.1497      0.00000
     53       9.4809      0.00000
     54       9.6937      0.00000
     55       9.7256      0.00000
     56       9.9228      0.00000
     57      10.0184      0.00000
     58      10.4089      0.00000
     59      10.4964      0.00000
     60      10.6308      0.00000
     61      10.9063      0.00000
     62      11.1152      0.00000
     63      11.1703      0.00000
     64      11.5016      0.00000


--------------------------------------------------------------------------------------------------------


 soft charge-density along one line, spin component           1
         0         1         2         3         4         5         6         7         8         9
 total charge-density along one line
 
 pseudopotential strength for first ion, spin component:           1
  8.649  14.750   0.000  -0.000  -0.000   0.001  -0.000  -0.000
 14.750  25.156   0.000  -0.000  -0.000   0.001  -0.000  -0.000
  0.000   0.000   1.980   0.000   0.000   5.750   0.000   0.000
 -0.000  -0.000   0.000   1.980   0.000   0.000   5.750   0.000
 -0.000  -0.000   0.000   0.000   1.980   0.000   0.000   5.750
  0.001   0.001   5.750   0.000   0.000  16.590   0.000   0.000
 -0.000  -0.000   0.000   5.750   0.000   0.000  16.589   0.000
 -0.000  -0.000   0.000   0.000   5.750   0.000   0.000  16.589
 total augmentation occupancy for first ion, spin component:           1
  3.355  -0.822  -0.002   0.003  -0.000   0.001   0.000  -0.000
 -0.822   0.271   0.003   0.010  -0.000  -0.000  -0.000   0.000
 -0.002   0.003   1.091  -0.004  -0.000  -0.072   0.000   0.000
  0.003   0.010  -0.004   1.148  -0.000   0.000  -0.073   0.000
 -0.000  -0.000  -0.000  -0.000   1.105   0.000   0.000  -0.072
  0.001  -0.000  -0.072   0.000   0.000   0.005  -0.000  -0.000
  0.000  -0.000   0.000  -0.073   0.000  -0.000   0.005  -0.000
 -0.000   0.000   0.000   0.000  -0.072  -0.000  -0.000   0.005


------------------------ aborting loop because EDIFF is reached ----------------------------------------


    CHARGE:  cpu time    5.0674: real time    5.2088
    FORLOC:  cpu time    0.0055: real time    0.0055
    FORNL :  cpu time   24.4533: real time   25.0558
    STRESS:  cpu time   73.2550: real time   75.3261
    FORCOR:  cpu time    0.0428: real time    0.0428
    FORHAR:  cpu time    0.0136: real time    0.0136
    MIXING:  cpu time    0.0028: real time    0.0028
    OFIELD:  cpu time    0.0001: real time    0.0001

  FORCE on cell =-STRESS in cart. coord.  units (eV):
  Direction    XX          YY          ZZ          XY          YZ          ZX
  --------------------------------------------------------------------------------------
  Alpha Z    -1.63131    -1.63131    -1.63131
  Ewald    5385.08681  5266.25177 -6043.75461    -0.04016  -999.20909    -0.04984
  Hartree  5502.62112  5403.60278 -5402.40790    -0.00047  -960.43478     0.00025
  E(xc)    -134.77228  -134.86614  -135.09471     0.00084     0.00128     0.00177
  Local  -11274.55169-11056.37219 11061.66584     0.04043  1959.88697     0.05177
  n-local   306.75132   306.04402   302.32651    -0.00915    -0.04445    -0.02029
  augment   -17.39501   -17.35169   -17.23206     0.00036     0.00909     0.00102
  Kinetic   230.34937   231.27368   236.22879     0.00574    -0.49613    -0.00017
  Fock        0.00000     0.00000     0.00000     0.00000     0.00000     0.00000
  -------------------------------------------------------------------------------------
  Total      -3.54166    -3.04909     0.10055    -0.00240    -0.28711    -0.01548
  in kB     -10.76535    -9.26811     0.30564    -0.00730    -0.87271    -0.04706
  external pressure =       -6.58 kB  Pullay stress =        0.00 kB


 VOLUME and BASIS-vectors are now :
 -----------------------------------------------------------------------------
  energy-cutoff  :      400.00
  volume of cell :      527.09
      direct lattice vectors                 reciprocal lattice vectors
     2.855954575  0.000000000  0.000000000     0.350145625 -0.000011685 -0.000132205
    -0.000000000  6.968463833 -0.615931004     0.000000000  0.143503651  0.000000000
     0.010000000  0.000000000 26.485033167    -0.000000000  0.003337294  0.037757174

  length of vectors
     2.855954575  6.995631437 26.485035055     0.350145650  0.143503651  0.037904376


 FORCES acting on ions
    electron-ion (+dipol)            ewald-force                    non-local-force                 convergence-correction
 -----------------------------------------------------------------------------------------------
   0.101E-03 -.180E+02 -.180E+03   0.591E-04 0.179E+02 0.180E+03   -.803E-04 0.293E-01 -.256E+00   0.622E-09 0.134E-05 0.521E-05
   0.177E-02 -.119E+02 -.262E+03   -.129E-02 0.122E+02 0.261E+03   -.914E-03 -.232E+00 0.134E+01   0.199E-10 -.291E-05 0.248E-04
   0.272E-02 -.223E+02 -.230E+03   -.180E-02 0.223E+02 0.230E+03   -.142E-02 0.104E+00 0.813E+00   -.461E-09 0.427E-05 0.176E-04
   0.230E-02 -.325E+02 -.279E+03   -.191E-02 0.325E+02 0.277E+03   -.944E-03 -.662E-01 0.103E+01   0.150E-09 0.273E-06 0.157E-04
   -.282E-03 -.168E+01 -.203E+02   0.159E-06 0.160E+01 0.202E+02   0.208E-03 0.605E-01 0.870E-01   -.773E-09 0.234E-06 0.374E-05
   -.827E-05 -.926E+01 -.102E+03   0.110E-04 0.928E+01 0.102E+03   -.276E-04 -.491E-01 0.312E-01   -.558E-09 0.319E-06 0.672E-05
   0.129E-03 -.560E+01 -.607E+02   -.676E-06 0.557E+01 0.606E+02   -.449E-04 0.365E-01 0.107E+00   0.204E-09 -.373E-06 0.605E-05
   -.276E-03 -.111E+02 -.142E+03   -.528E-05 0.111E+02 0.142E+03   0.182E-03 0.980E-01 -.173E+00   0.146E-10 -.108E-06 0.350E-05
   0.276E-03 0.111E+02 0.142E+03   0.528E-05 -.111E+02 -.142E+03   -.182E-03 -.980E-01 0.173E+00   -.146E-10 0.108E-06 -.350E-05
   -.129E-03 0.560E+01 0.607E+02   0.676E-06 -.557E+01 -.606E+02   0.449E-04 -.365E-01 -.107E+00   -.204E-09 0.373E-06 -.605E-05
   0.827E-05 0.926E+01 0.102E+03   -.110E-04 -.928E+01 -.102E+03   0.276E-04 0.491E-01 -.312E-01   0.558E-09 -.319E-06 -.672E-05
   0.282E-03 0.168E+01 0.203E+02   -.159E-06 -.160E+01 -.202E+02   -.208E-03 -.605E-01 -.870E-01   0.773E-09 -.234E-06 -.374E-05
   -.230E-02 0.325E+02 0.279E+03   0.191E-02 -.325E+02 -.277E+03   0.944E-03 0.662E-01 -.103E+01   -.150E-09 -.273E-06 -.157E-04
   -.272E-02 0.223E+02 0.230E+03   0.180E-02 -.223E+02 -.230E+03   0.142E-02 -.104E+00 -.813E+00   0.461E-09 -.427E-05 -.176E-04
   -.177E-02 0.119E+02 0.262E+03   0.129E-02 -.122E+02 -.261E+03   0.914E-03 0.232E+00 -.134E+01   -.199E-10 0.291E-05 -.248E-04
   -.101E-03 0.180E+02 0.180E+03   -.591E-04 -.179E+02 -.180E+03   0.803E-04 -.293E-01 0.256E+00   -.622E-09 -.134E-05 -.521E-05
 -----------------------------------------------------------------------------------------------
   -.168E-12 -.328E-13 0.683E-12   -.290E-14 0.142E-13 0.853E-13   0.705E-18 0.278E-16 0.000E+00   -.172E-16 -.179E-16 -.191E-13
 
 
 POSITION                                       TOTAL-FORCE (eV/Angst)
 -----------------------------------------------------------------------------------
      0.00891      4.68194     23.17440         0.000080     -0.068422     -0.078131
      0.00953      2.50429     25.02220        -0.000430     -0.011049     -0.008450
      1.43720      0.10888     24.40627        -0.000493      0.087011      0.285687
      1.43782      4.89970     25.63813        -0.000551     -0.063161     -0.131948
      0.00766      2.06876     20.09475        -0.000073     -0.017709      0.030603
      0.00828      6.85958     21.32661        -0.000025     -0.026424      0.006079
      1.43595      4.46417     20.71068         0.000083      0.001220      0.080135
      1.43657      2.28653     22.55847        -0.000099      0.030386     -0.072703
      0.00641      6.42405     16.39916         0.000099     -0.030386      0.072703
      0.00703      4.24641     18.24696        -0.000083     -0.001220     -0.080135
      1.43470      1.85100     17.63102         0.000025      0.026424     -0.006079
      1.43532      6.64182     18.86289         0.000073      0.017709     -0.030603
      0.00516      3.81088     13.31951         0.000551      0.063161      0.131948
      0.00578      1.63323     15.16730         0.000493     -0.087011     -0.285687
      1.43345      6.20629     13.93544         0.000430      0.011049      0.008450
      1.43407      4.02864     15.78323        -0.000080      0.068422      0.078131
 -----------------------------------------------------------------------------------
    total drift:                               -0.000000     -0.000000      0.000000


--------------------------------------------------------------------------------------------------------



  FREE ENERGIE OF THE ION-ELECTRON SYSTEM (eV)
  ---------------------------------------------------
  free  energy   TOTEN  =       -57.55424905 eV

  energy  without entropy=      -57.55479980  energy(sigma->0) =      -57.55443263
 


--------------------------------------------------------------------------------------------------------


    POTLOK:  cpu time    0.0448: real time    0.0497


--------------------------------------------------------------------------------------------------------


     LOOP+:  cpu time 2192.8707: real time 2253.2860
    4ORBIT:  cpu time    0.0000: real time    0.0000

 total amount of memory used by VASP MPI-rank0   205978. kBytes
=======================================================================

   base      :      30000. kBytes
   nonlr-proj:       4947. kBytes
   fftplans  :       2800. kBytes
   grid      :      10257. kBytes
   one-center:         49. kBytes
   wavefun   :     157925. kBytes
 
  
  
 General timing and accounting informations for this job:
 ========================================================
  
                  Total CPU time used (sec):     2223.678
                            User time (sec):     2050.853
                          System time (sec):      172.825
                         Elapsed time (sec):     2285.211
  
                   Maximum memory used (kb):      591388.
                   Average memory used (kb):           0.
  
                          Minor page faults:      8800210
                          Major page faults:           86
                 Voluntary context switches:          873
