<?xml version="1.0" encoding="ISO-8859-1"?>
<modeling>
 <generator>
  <i name="program" type="string">vasp </i>
  <i name="version" type="string">5.4.4.18Apr17-6-g9f103f2a35  </i>
  <i name="subversion" type="string">(build Nov 07 2022 11:18:25) complex            parallel </i>
  <i name="platform" type="string">LinuxIFC </i>
  <i name="date" type="string">2024 05 28 </i>
  <i name="time" type="string">09:34:31 </i>
 </generator>
 <incar>
  <i type="string" name="SYSTEM"> Al fcc relaxation</i>
  <i type="string" name="PREC">accurate</i>
  <i type="string" name="ALGO"> Fast</i>
  <i type="int" name="NELM">    60</i>
  <i type="int" name="NELMIN">     4</i>
  <i type="int" name="IBRION">     2</i>
  <i name="EDIFF">      0.00000100</i>
  <i type="int" name="NSW">     0</i>
  <i type="int" name="ISIF">     3</i>
  <i name="ENCUT">    400.00000000</i>
  <i type="string" name="LREAL"> Auto</i>
  <i type="int" name="ISMEAR">     1</i>
  <i name="SIGMA">      0.20000000</i>
  <i name="KSPACING">      0.08000000</i>
  <i type="logical" name="LWAVE"> F  </i>
  <i type="logical" name="LCHARG"> F  </i>
  <v type="int" name="KPOINT_BSE">    -1     0     0     0</v>
  <i type="int" name="NELM">    60</i>
 </incar>
 <structure name="primitive_cell" >
  <crystal>
   <varray name="basis" >
    <v>       2.85595457       0.00000000       0.00000000 </v>
    <v>      -0.00000000       6.96846383      -0.61593100 </v>
    <v>       0.01000000       0.00000000      26.48503317 </v>
   </varray>
   <i name="volume">    527.09496419 </i>
   <varray name="rec_basis" >
    <v>       0.35014563      -0.00001169      -0.00013221 </v>
    <v>       0.00000000       0.14350365       0.00000000 </v>
    <v>      -0.00000000       0.00333729       0.03775717 </v>
   </varray>
  </crystal>
  <varray name="positions" >
   <v>       0.00000000      -0.32812500      -0.10937500 </v>
   <v>      -0.50000000      -0.29687500      -0.01562500 </v>
   <v>      -0.50000000      -0.35937500      -0.20312500 </v>
   <v>      -0.50000000       0.01562500      -0.07812500 </v>
   <v>      -0.50000000       0.32812500      -0.14062500 </v>
   <v>       0.00000000       0.35937500      -0.04687500 </v>
   <v>       0.00000000      -0.01562500      -0.17187500 </v>
   <v>       0.00000000       0.29687500      -0.23437500 </v>
   <v>      -0.50000000      -0.04687500      -0.26562500 </v>
   <v>       0.00000000      -0.39062500      -0.29687500 </v>
   <v>      -0.50000000       0.26562500      -0.32812500 </v>
   <v>       0.00000000      -0.07812500      -0.35937500 </v>
   <v>      -0.50000000      -0.42187500      -0.39062500 </v>
   <v>       0.00000000       0.23437500      -0.42187500 </v>
   <v>      -0.50000000      -0.10937500      -0.45312500 </v>
   <v>       0.00000000      -0.45312500      -0.48437500 </v>
  </varray>
 </structure>
 <varray name="primitive_index" >
  <v type="int" >        1 </v>
  <v type="int" >        4 </v>
  <v type="int" >        7 </v>
  <v type="int" >        3 </v>
  <v type="int" >        8 </v>
  <v type="int" >        2 </v>
  <v type="int" >        6 </v>
  <v type="int" >        5 </v>
  <v type="int" >       12 </v>
  <v type="int" >       10 </v>
  <v type="int" >       11 </v>
  <v type="int" >        9 </v>
  <v type="int" >       16 </v>
  <v type="int" >       14 </v>
  <v type="int" >       15 </v>
  <v type="int" >       13 </v>
 </varray>
 <kpoints>
  <generation param="Monkhorst-Pack">
   <v type="int" name="divisions">      28       12        3 </v>
   <v name="usershift">      0.00000000       0.00000000       0.00000000 </v>
   <v name="genvec1">      0.03571429      -0.00000000       0.00000000 </v>
   <v name="genvec2">      0.00000000       0.08333333       0.00000000 </v>
   <v name="genvec3">      0.00000000       0.00000000       0.33333333 </v>
   <v name="shift">      0.50000000       0.50000000       0.00000000 </v>
  </generation>
  <varray name="kpointlist" >
   <v>       0.01785714       0.04166667       0.00000000 </v>
   <v>       0.05357143       0.04166667       0.00000000 </v>
   <v>       0.08928571       0.04166667      -0.00000000 </v>
   <v>       0.12500000       0.04166667      -0.00000000 </v>
   <v>       0.16071429       0.04166667       0.00000000 </v>
   <v>       0.19642857       0.04166667       0.00000000 </v>
   <v>       0.23214286       0.04166667      -0.00000000 </v>
   <v>       0.26785714       0.04166667       0.00000000 </v>
   <v>       0.30357143       0.04166667      -0.00000000 </v>
   <v>       0.33928571       0.04166667      -0.00000000 </v>
   <v>       0.37500000       0.04166667      -0.00000000 </v>
   <v>       0.41071429       0.04166667      -0.00000000 </v>
   <v>       0.44642857       0.04166667      -0.00000000 </v>
   <v>       0.48214286       0.04166667      -0.00000000 </v>
   <v>      -0.48214286       0.04166667       0.00000000 </v>
   <v>      -0.44642857       0.04166667       0.00000000 </v>
   <v>      -0.41071429       0.04166667       0.00000000 </v>
   <v>      -0.37500000       0.04166667       0.00000000 </v>
   <v>      -0.33928571       0.04166667       0.00000000 </v>
   <v>      -0.30357143       0.04166667       0.00000000 </v>
   <v>      -0.26785714       0.04166667       0.00000000 </v>
   <v>      -0.23214286       0.04166667      -0.00000000 </v>
   <v>      -0.19642857       0.04166667       0.00000000 </v>
   <v>      -0.16071429       0.04166667       0.00000000 </v>
   <v>      -0.12500000       0.04166667       0.00000000 </v>
   <v>      -0.08928571       0.04166667       0.00000000 </v>
   <v>      -0.05357143       0.04166667       0.00000000 </v>
   <v>      -0.01785714       0.04166667       0.00000000 </v>
   <v>       0.01785714       0.12500000       0.00000000 </v>
   <v>       0.05357143       0.12500000       0.00000000 </v>
   <v>       0.08928571       0.12500000      -0.00000000 </v>
   <v>       0.12500000       0.12500000      -0.00000000 </v>
   <v>       0.16071429       0.12500000       0.00000000 </v>
   <v>       0.19642857       0.12500000       0.00000000 </v>
   <v>       0.23214286       0.12500000      -0.00000000 </v>
   <v>       0.26785714       0.12500000       0.00000000 </v>
   <v>       0.30357143       0.12500000      -0.00000000 </v>
   <v>       0.33928571       0.12500000      -0.00000000 </v>
   <v>       0.37500000       0.12500000      -0.00000000 </v>
   <v>       0.41071429       0.12500000      -0.00000000 </v>
   <v>       0.44642857       0.12500000      -0.00000000 </v>
   <v>       0.48214286       0.12500000      -0.00000000 </v>
   <v>      -0.48214286       0.12500000       0.00000000 </v>
   <v>      -0.44642857       0.12500000       0.00000000 </v>
   <v>      -0.41071429       0.12500000       0.00000000 </v>
   <v>      -0.37500000       0.12500000       0.00000000 </v>
   <v>      -0.33928571       0.12500000       0.00000000 </v>
   <v>      -0.30357143       0.12500000       0.00000000 </v>
   <v>      -0.26785714       0.12500000       0.00000000 </v>
   <v>      -0.23214286       0.12500000      -0.00000000 </v>
   <v>      -0.19642857       0.12500000       0.00000000 </v>
   <v>      -0.16071429       0.12500000       0.00000000 </v>
   <v>      -0.12500000       0.12500000       0.00000000 </v>
   <v>      -0.08928571       0.12500000       0.00000000 </v>
   <v>      -0.05357143       0.12500000       0.00000000 </v>
   <v>      -0.01785714       0.12500000       0.00000000 </v>
   <v>       0.01785714       0.20833333       0.00000000 </v>
   <v>       0.05357143       0.20833333       0.00000000 </v>
   <v>       0.08928571       0.20833333      -0.00000000 </v>
   <v>       0.12500000       0.20833333      -0.00000000 </v>
   <v>       0.16071429       0.20833333       0.00000000 </v>
   <v>       0.19642857       0.20833333       0.00000000 </v>
   <v>       0.23214286       0.20833333      -0.00000000 </v>
   <v>       0.26785714       0.20833333       0.00000000 </v>
   <v>       0.30357143       0.20833333      -0.00000000 </v>
   <v>       0.33928571       0.20833333      -0.00000000 </v>
   <v>       0.37500000       0.20833333      -0.00000000 </v>
   <v>       0.41071429       0.20833333      -0.00000000 </v>
   <v>       0.44642857       0.20833333      -0.00000000 </v>
   <v>       0.48214286       0.20833333      -0.00000000 </v>
   <v>      -0.48214286       0.20833333       0.00000000 </v>
   <v>      -0.44642857       0.20833333       0.00000000 </v>
   <v>      -0.41071429       0.20833333       0.00000000 </v>
   <v>      -0.37500000       0.20833333       0.00000000 </v>
   <v>      -0.33928571       0.20833333       0.00000000 </v>
   <v>      -0.30357143       0.20833333       0.00000000 </v>
   <v>      -0.26785714       0.20833333       0.00000000 </v>
   <v>      -0.23214286       0.20833333      -0.00000000 </v>
   <v>      -0.19642857       0.20833333       0.00000000 </v>
   <v>      -0.16071429       0.20833333       0.00000000 </v>
   <v>      -0.12500000       0.20833333       0.00000000 </v>
   <v>      -0.08928571       0.20833333       0.00000000 </v>
   <v>      -0.05357143       0.20833333       0.00000000 </v>
   <v>      -0.01785714       0.20833333       0.00000000 </v>
   <v>       0.01785714       0.29166667       0.00000000 </v>
   <v>       0.05357143       0.29166667       0.00000000 </v>
   <v>       0.08928571       0.29166667      -0.00000000 </v>
   <v>       0.12500000       0.29166667      -0.00000000 </v>
   <v>       0.16071429       0.29166667       0.00000000 </v>
   <v>       0.19642857       0.29166667       0.00000000 </v>
   <v>       0.23214286       0.29166667      -0.00000000 </v>
   <v>       0.26785714       0.29166667       0.00000000 </v>
   <v>       0.30357143       0.29166667      -0.00000000 </v>
   <v>       0.33928571       0.29166667      -0.00000000 </v>
   <v>       0.37500000       0.29166667      -0.00000000 </v>
   <v>       0.41071429       0.29166667      -0.00000000 </v>
   <v>       0.44642857       0.29166667      -0.00000000 </v>
   <v>       0.48214286       0.29166667      -0.00000000 </v>
   <v>      -0.48214286       0.29166667       0.00000000 </v>
   <v>      -0.44642857       0.29166667       0.00000000 </v>
   <v>      -0.41071429       0.29166667       0.00000000 </v>
   <v>      -0.37500000       0.29166667       0.00000000 </v>
   <v>      -0.33928571       0.29166667       0.00000000 </v>
   <v>      -0.30357143       0.29166667       0.00000000 </v>
   <v>      -0.26785714       0.29166667       0.00000000 </v>
   <v>      -0.23214286       0.29166667      -0.00000000 </v>
   <v>      -0.19642857       0.29166667       0.00000000 </v>
   <v>      -0.16071429       0.29166667       0.00000000 </v>
   <v>      -0.12500000       0.29166667       0.00000000 </v>
   <v>      -0.08928571       0.29166667       0.00000000 </v>
   <v>      -0.05357143       0.29166667       0.00000000 </v>
   <v>      -0.01785714       0.29166667       0.00000000 </v>
   <v>       0.01785714       0.37500000       0.00000000 </v>
   <v>       0.05357143       0.37500000       0.00000000 </v>
   <v>       0.08928571       0.37500000      -0.00000000 </v>
   <v>       0.12500000       0.37500000      -0.00000000 </v>
   <v>       0.16071429       0.37500000       0.00000000 </v>
   <v>       0.19642857       0.37500000       0.00000000 </v>
   <v>       0.23214286       0.37500000      -0.00000000 </v>
   <v>       0.26785714       0.37500000       0.00000000 </v>
   <v>       0.30357143       0.37500000      -0.00000000 </v>
   <v>       0.33928571       0.37500000      -0.00000000 </v>
   <v>       0.37500000       0.37500000      -0.00000000 </v>
   <v>       0.41071429       0.37500000      -0.00000000 </v>
   <v>       0.44642857       0.37500000      -0.00000000 </v>
   <v>       0.48214286       0.37500000      -0.00000000 </v>
   <v>      -0.48214286       0.37500000       0.00000000 </v>
   <v>      -0.44642857       0.37500000       0.00000000 </v>
   <v>      -0.41071429       0.37500000       0.00000000 </v>
   <v>      -0.37500000       0.37500000       0.00000000 </v>
   <v>      -0.33928571       0.37500000       0.00000000 </v>
   <v>      -0.30357143       0.37500000       0.00000000 </v>
   <v>      -0.26785714       0.37500000       0.00000000 </v>
   <v>      -0.23214286       0.37500000      -0.00000000 </v>
   <v>      -0.19642857       0.37500000       0.00000000 </v>
   <v>      -0.16071429       0.37500000       0.00000000 </v>
   <v>      -0.12500000       0.37500000       0.00000000 </v>
   <v>      -0.08928571       0.37500000       0.00000000 </v>
   <v>      -0.05357143       0.37500000       0.00000000 </v>
   <v>      -0.01785714       0.37500000       0.00000000 </v>
   <v>       0.01785714       0.45833333       0.00000000 </v>
   <v>       0.05357143       0.45833333       0.00000000 </v>
   <v>       0.08928571       0.45833333      -0.00000000 </v>
   <v>       0.12500000       0.45833333      -0.00000000 </v>
   <v>       0.16071429       0.45833333       0.00000000 </v>
   <v>       0.19642857       0.45833333       0.00000000 </v>
   <v>       0.23214286       0.45833333      -0.00000000 </v>
   <v>       0.26785714       0.45833333       0.00000000 </v>
   <v>       0.30357143       0.45833333      -0.00000000 </v>
   <v>       0.33928571       0.45833333      -0.00000000 </v>
   <v>       0.37500000       0.45833333      -0.00000000 </v>
   <v>       0.41071429       0.45833333      -0.00000000 </v>
   <v>       0.44642857       0.45833333      -0.00000000 </v>
   <v>       0.48214286       0.45833333      -0.00000000 </v>
   <v>      -0.48214286       0.45833333       0.00000000 </v>
   <v>      -0.44642857       0.45833333       0.00000000 </v>
   <v>      -0.41071429       0.45833333       0.00000000 </v>
   <v>      -0.37500000       0.45833333       0.00000000 </v>
   <v>      -0.33928571       0.45833333       0.00000000 </v>
   <v>      -0.30357143       0.45833333       0.00000000 </v>
   <v>      -0.26785714       0.45833333       0.00000000 </v>
   <v>      -0.23214286       0.45833333      -0.00000000 </v>
   <v>      -0.19642857       0.45833333       0.00000000 </v>
   <v>      -0.16071429       0.45833333       0.00000000 </v>
   <v>      -0.12500000       0.45833333       0.00000000 </v>
   <v>      -0.08928571       0.45833333       0.00000000 </v>
   <v>      -0.05357143       0.45833333       0.00000000 </v>
   <v>      -0.01785714       0.45833333       0.00000000 </v>
   <v>       0.01785714       0.04166667       0.33333333 </v>
   <v>       0.05357143       0.04166667       0.33333333 </v>
   <v>       0.08928571       0.04166667       0.33333333 </v>
   <v>       0.12500000       0.04166667       0.33333333 </v>
   <v>       0.16071429       0.04166667       0.33333333 </v>
   <v>       0.19642857       0.04166667       0.33333333 </v>
   <v>       0.23214286       0.04166667       0.33333333 </v>
   <v>       0.26785714       0.04166667       0.33333333 </v>
   <v>       0.30357143       0.04166667       0.33333333 </v>
   <v>       0.33928571       0.04166667       0.33333333 </v>
   <v>       0.37500000       0.04166667       0.33333333 </v>
   <v>       0.41071429       0.04166667       0.33333333 </v>
   <v>       0.44642857       0.04166667       0.33333333 </v>
   <v>       0.48214286       0.04166667       0.33333333 </v>
   <v>      -0.48214286       0.04166667       0.33333333 </v>
   <v>      -0.44642857       0.04166667       0.33333333 </v>
   <v>      -0.41071429       0.04166667       0.33333333 </v>
   <v>      -0.37500000       0.04166667       0.33333333 </v>
   <v>      -0.33928571       0.04166667       0.33333333 </v>
   <v>      -0.30357143       0.04166667       0.33333333 </v>
   <v>      -0.26785714       0.04166667       0.33333333 </v>
   <v>      -0.23214286       0.04166667       0.33333333 </v>
   <v>      -0.19642857       0.04166667       0.33333333 </v>
   <v>      -0.16071429       0.04166667       0.33333333 </v>
   <v>      -0.12500000       0.04166667       0.33333333 </v>
   <v>      -0.08928571       0.04166667       0.33333333 </v>
   <v>      -0.05357143       0.04166667       0.33333333 </v>
   <v>      -0.01785714       0.04166667       0.33333333 </v>
   <v>       0.01785714       0.12500000       0.33333333 </v>
   <v>       0.05357143       0.12500000       0.33333333 </v>
   <v>       0.08928571       0.12500000       0.33333333 </v>
   <v>       0.12500000       0.12500000       0.33333333 </v>
   <v>       0.16071429       0.12500000       0.33333333 </v>
   <v>       0.19642857       0.12500000       0.33333333 </v>
   <v>       0.23214286       0.12500000       0.33333333 </v>
   <v>       0.26785714       0.12500000       0.33333333 </v>
   <v>       0.30357143       0.12500000       0.33333333 </v>
   <v>       0.33928571       0.12500000       0.33333333 </v>
   <v>       0.37500000       0.12500000       0.33333333 </v>
   <v>       0.41071429       0.12500000       0.33333333 </v>
   <v>       0.44642857       0.12500000       0.33333333 </v>
   <v>       0.48214286       0.12500000       0.33333333 </v>
   <v>      -0.48214286       0.12500000       0.33333333 </v>
   <v>      -0.44642857       0.12500000       0.33333333 </v>
   <v>      -0.41071429       0.12500000       0.33333333 </v>
   <v>      -0.37500000       0.12500000       0.33333333 </v>
   <v>      -0.33928571       0.12500000       0.33333333 </v>
   <v>      -0.30357143       0.12500000       0.33333333 </v>
   <v>      -0.26785714       0.12500000       0.33333333 </v>
   <v>      -0.23214286       0.12500000       0.33333333 </v>
   <v>      -0.19642857       0.12500000       0.33333333 </v>
   <v>      -0.16071429       0.12500000       0.33333333 </v>
   <v>      -0.12500000       0.12500000       0.33333333 </v>
   <v>      -0.08928571       0.12500000       0.33333333 </v>
   <v>      -0.05357143       0.12500000       0.33333333 </v>
   <v>      -0.01785714       0.12500000       0.33333333 </v>
   <v>       0.01785714       0.20833333       0.33333333 </v>
   <v>       0.05357143       0.20833333       0.33333333 </v>
   <v>       0.08928571       0.20833333       0.33333333 </v>
   <v>       0.12500000       0.20833333       0.33333333 </v>
   <v>       0.16071429       0.20833333       0.33333333 </v>
   <v>       0.19642857       0.20833333       0.33333333 </v>
   <v>       0.23214286       0.20833333       0.33333333 </v>
   <v>       0.26785714       0.20833333       0.33333333 </v>
   <v>       0.30357143       0.20833333       0.33333333 </v>
   <v>       0.33928571       0.20833333       0.33333333 </v>
   <v>       0.37500000       0.20833333       0.33333333 </v>
   <v>       0.41071429       0.20833333       0.33333333 </v>
   <v>       0.44642857       0.20833333       0.33333333 </v>
   <v>       0.48214286       0.20833333       0.33333333 </v>
   <v>      -0.48214286       0.20833333       0.33333333 </v>
   <v>      -0.44642857       0.20833333       0.33333333 </v>
   <v>      -0.41071429       0.20833333       0.33333333 </v>
   <v>      -0.37500000       0.20833333       0.33333333 </v>
   <v>      -0.33928571       0.20833333       0.33333333 </v>
   <v>      -0.30357143       0.20833333       0.33333333 </v>
   <v>      -0.26785714       0.20833333       0.33333333 </v>
   <v>      -0.23214286       0.20833333       0.33333333 </v>
   <v>      -0.19642857       0.20833333       0.33333333 </v>
   <v>      -0.16071429       0.20833333       0.33333333 </v>
   <v>      -0.12500000       0.20833333       0.33333333 </v>
   <v>      -0.08928571       0.20833333       0.33333333 </v>
   <v>      -0.05357143       0.20833333       0.33333333 </v>
   <v>      -0.01785714       0.20833333       0.33333333 </v>
   <v>       0.01785714       0.29166667       0.33333333 </v>
   <v>       0.05357143       0.29166667       0.33333333 </v>
   <v>       0.08928571       0.29166667       0.33333333 </v>
   <v>       0.12500000       0.29166667       0.33333333 </v>
   <v>       0.16071429       0.29166667       0.33333333 </v>
   <v>       0.19642857       0.29166667       0.33333333 </v>
   <v>       0.23214286       0.29166667       0.33333333 </v>
   <v>       0.26785714       0.29166667       0.33333333 </v>
   <v>       0.30357143       0.29166667       0.33333333 </v>
   <v>       0.33928571       0.29166667       0.33333333 </v>
   <v>       0.37500000       0.29166667       0.33333333 </v>
   <v>       0.41071429       0.29166667       0.33333333 </v>
   <v>       0.44642857       0.29166667       0.33333333 </v>
   <v>       0.48214286       0.29166667       0.33333333 </v>
   <v>      -0.48214286       0.29166667       0.33333333 </v>
   <v>      -0.44642857       0.29166667       0.33333333 </v>
   <v>      -0.41071429       0.29166667       0.33333333 </v>
   <v>      -0.37500000       0.29166667       0.33333333 </v>
   <v>      -0.33928571       0.29166667       0.33333333 </v>
   <v>      -0.30357143       0.29166667       0.33333333 </v>
   <v>      -0.26785714       0.29166667       0.33333333 </v>
   <v>      -0.23214286       0.29166667       0.33333333 </v>
   <v>      -0.19642857       0.29166667       0.33333333 </v>
   <v>      -0.16071429       0.29166667       0.33333333 </v>
   <v>      -0.12500000       0.29166667       0.33333333 </v>
   <v>      -0.08928571       0.29166667       0.33333333 </v>
   <v>      -0.05357143       0.29166667       0.33333333 </v>
   <v>      -0.01785714       0.29166667       0.33333333 </v>
   <v>       0.01785714       0.37500000       0.33333333 </v>
   <v>       0.05357143       0.37500000       0.33333333 </v>
   <v>       0.08928571       0.37500000       0.33333333 </v>
   <v>       0.12500000       0.37500000       0.33333333 </v>
   <v>       0.16071429       0.37500000       0.33333333 </v>
   <v>       0.19642857       0.37500000       0.33333333 </v>
   <v>       0.23214286       0.37500000       0.33333333 </v>
   <v>       0.26785714       0.37500000       0.33333333 </v>
   <v>       0.30357143       0.37500000       0.33333333 </v>
   <v>       0.33928571       0.37500000       0.33333333 </v>
   <v>       0.37500000       0.37500000       0.33333333 </v>
   <v>       0.41071429       0.37500000       0.33333333 </v>
   <v>       0.44642857       0.37500000       0.33333333 </v>
   <v>       0.48214286       0.37500000       0.33333333 </v>
   <v>      -0.48214286       0.37500000       0.33333333 </v>
   <v>      -0.44642857       0.37500000       0.33333333 </v>
   <v>      -0.41071429       0.37500000       0.33333333 </v>
   <v>      -0.37500000       0.37500000       0.33333333 </v>
   <v>      -0.33928571       0.37500000       0.33333333 </v>
   <v>      -0.30357143       0.37500000       0.33333333 </v>
   <v>      -0.26785714       0.37500000       0.33333333 </v>
   <v>      -0.23214286       0.37500000       0.33333333 </v>
   <v>      -0.19642857       0.37500000       0.33333333 </v>
   <v>      -0.16071429       0.37500000       0.33333333 </v>
   <v>      -0.12500000       0.37500000       0.33333333 </v>
   <v>      -0.08928571       0.37500000       0.33333333 </v>
   <v>      -0.05357143       0.37500000       0.33333333 </v>
   <v>      -0.01785714       0.37500000       0.33333333 </v>
   <v>       0.01785714       0.45833333       0.33333333 </v>
   <v>       0.05357143       0.45833333       0.33333333 </v>
   <v>       0.08928571       0.45833333       0.33333333 </v>
   <v>       0.12500000       0.45833333       0.33333333 </v>
   <v>       0.16071429       0.45833333       0.33333333 </v>
   <v>       0.19642857       0.45833333       0.33333333 </v>
   <v>       0.23214286       0.45833333       0.33333333 </v>
   <v>       0.26785714       0.45833333       0.33333333 </v>
   <v>       0.30357143       0.45833333       0.33333333 </v>
   <v>       0.33928571       0.45833333       0.33333333 </v>
   <v>       0.37500000       0.45833333       0.33333333 </v>
   <v>       0.41071429       0.45833333       0.33333333 </v>
   <v>       0.44642857       0.45833333       0.33333333 </v>
   <v>       0.48214286       0.45833333       0.33333333 </v>
   <v>      -0.48214286       0.45833333       0.33333333 </v>
   <v>      -0.44642857       0.45833333       0.33333333 </v>
   <v>      -0.41071429       0.45833333       0.33333333 </v>
   <v>      -0.37500000       0.45833333       0.33333333 </v>
   <v>      -0.33928571       0.45833333       0.33333333 </v>
   <v>      -0.30357143       0.45833333       0.33333333 </v>
   <v>      -0.26785714       0.45833333       0.33333333 </v>
   <v>      -0.23214286       0.45833333       0.33333333 </v>
   <v>      -0.19642857       0.45833333       0.33333333 </v>
   <v>      -0.16071429       0.45833333       0.33333333 </v>
   <v>      -0.12500000       0.45833333       0.33333333 </v>
   <v>      -0.08928571       0.45833333       0.33333333 </v>
   <v>      -0.05357143       0.45833333       0.33333333 </v>
   <v>      -0.01785714       0.45833333       0.33333333 </v>
   <v>       0.01785714      -0.45833333       0.33333333 </v>
   <v>       0.05357143      -0.45833333       0.33333333 </v>
   <v>       0.08928571      -0.45833333       0.33333333 </v>
   <v>       0.12500000      -0.45833333       0.33333333 </v>
   <v>       0.16071429      -0.45833333       0.33333333 </v>
   <v>       0.19642857      -0.45833333       0.33333333 </v>
   <v>       0.23214286      -0.45833333       0.33333333 </v>
   <v>       0.26785714      -0.45833333       0.33333333 </v>
   <v>       0.30357143      -0.45833333       0.33333333 </v>
   <v>       0.33928571      -0.45833333       0.33333333 </v>
   <v>       0.37500000      -0.45833333       0.33333333 </v>
   <v>       0.41071429      -0.45833333       0.33333333 </v>
   <v>       0.44642857      -0.45833333       0.33333333 </v>
   <v>       0.48214286      -0.45833333       0.33333333 </v>
   <v>      -0.48214286      -0.45833333       0.33333333 </v>
   <v>      -0.44642857      -0.45833333       0.33333333 </v>
   <v>      -0.41071429      -0.45833333       0.33333333 </v>
   <v>      -0.37500000      -0.45833333       0.33333333 </v>
   <v>      -0.33928571      -0.45833333       0.33333333 </v>
   <v>      -0.30357143      -0.45833333       0.33333333 </v>
   <v>      -0.26785714      -0.45833333       0.33333333 </v>
   <v>      -0.23214286      -0.45833333       0.33333333 </v>
   <v>      -0.19642857      -0.45833333       0.33333333 </v>
   <v>      -0.16071429      -0.45833333       0.33333333 </v>
   <v>      -0.12500000      -0.45833333       0.33333333 </v>
   <v>      -0.08928571      -0.45833333       0.33333333 </v>
   <v>      -0.05357143      -0.45833333       0.33333333 </v>
   <v>      -0.01785714      -0.45833333       0.33333333 </v>
   <v>       0.01785714      -0.37500000       0.33333333 </v>
   <v>       0.05357143      -0.37500000       0.33333333 </v>
   <v>       0.08928571      -0.37500000       0.33333333 </v>
   <v>       0.12500000      -0.37500000       0.33333333 </v>
   <v>       0.16071429      -0.37500000       0.33333333 </v>
   <v>       0.19642857      -0.37500000       0.33333333 </v>
   <v>       0.23214286      -0.37500000       0.33333333 </v>
   <v>       0.26785714      -0.37500000       0.33333333 </v>
   <v>       0.30357143      -0.37500000       0.33333333 </v>
   <v>       0.33928571      -0.37500000       0.33333333 </v>
   <v>       0.37500000      -0.37500000       0.33333333 </v>
   <v>       0.41071429      -0.37500000       0.33333333 </v>
   <v>       0.44642857      -0.37500000       0.33333333 </v>
   <v>       0.48214286      -0.37500000       0.33333333 </v>
   <v>      -0.48214286      -0.37500000       0.33333333 </v>
   <v>      -0.44642857      -0.37500000       0.33333333 </v>
   <v>      -0.41071429      -0.37500000       0.33333333 </v>
   <v>      -0.37500000      -0.37500000       0.33333333 </v>
   <v>      -0.33928571      -0.37500000       0.33333333 </v>
   <v>      -0.30357143      -0.37500000       0.33333333 </v>
   <v>      -0.26785714      -0.37500000       0.33333333 </v>
   <v>      -0.23214286      -0.37500000       0.33333333 </v>
   <v>      -0.19642857      -0.37500000       0.33333333 </v>
   <v>      -0.16071429      -0.37500000       0.33333333 </v>
   <v>      -0.12500000      -0.37500000       0.33333333 </v>
   <v>      -0.08928571      -0.37500000       0.33333333 </v>
   <v>      -0.05357143      -0.37500000       0.33333333 </v>
   <v>      -0.01785714      -0.37500000       0.33333333 </v>
   <v>       0.01785714      -0.29166667       0.33333333 </v>
   <v>       0.05357143      -0.29166667       0.33333333 </v>
   <v>       0.08928571      -0.29166667       0.33333333 </v>
   <v>       0.12500000      -0.29166667       0.33333333 </v>
   <v>       0.16071429      -0.29166667       0.33333333 </v>
   <v>       0.19642857      -0.29166667       0.33333333 </v>
   <v>       0.23214286      -0.29166667       0.33333333 </v>
   <v>       0.26785714      -0.29166667       0.33333333 </v>
   <v>       0.30357143      -0.29166667       0.33333333 </v>
   <v>       0.33928571      -0.29166667       0.33333333 </v>
   <v>       0.37500000      -0.29166667       0.33333333 </v>
   <v>       0.41071429      -0.29166667       0.33333333 </v>
   <v>       0.44642857      -0.29166667       0.33333333 </v>
   <v>       0.48214286      -0.29166667       0.33333333 </v>
   <v>      -0.48214286      -0.29166667       0.33333333 </v>
   <v>      -0.44642857      -0.29166667       0.33333333 </v>
   <v>      -0.41071429      -0.29166667       0.33333333 </v>
   <v>      -0.37500000      -0.29166667       0.33333333 </v>
   <v>      -0.33928571      -0.29166667       0.33333333 </v>
   <v>      -0.30357143      -0.29166667       0.33333333 </v>
   <v>      -0.26785714      -0.29166667       0.33333333 </v>
   <v>      -0.23214286      -0.29166667       0.33333333 </v>
   <v>      -0.19642857      -0.29166667       0.33333333 </v>
   <v>      -0.16071429      -0.29166667       0.33333333 </v>
   <v>      -0.12500000      -0.29166667       0.33333333 </v>
   <v>      -0.08928571      -0.29166667       0.33333333 </v>
   <v>      -0.05357143      -0.29166667       0.33333333 </v>
   <v>      -0.01785714      -0.29166667       0.33333333 </v>
   <v>       0.01785714      -0.20833333       0.33333333 </v>
   <v>       0.05357143      -0.20833333       0.33333333 </v>
   <v>       0.08928571      -0.20833333       0.33333333 </v>
   <v>       0.12500000      -0.20833333       0.33333333 </v>
   <v>       0.16071429      -0.20833333       0.33333333 </v>
   <v>       0.19642857      -0.20833333       0.33333333 </v>
   <v>       0.23214286      -0.20833333       0.33333333 </v>
   <v>       0.26785714      -0.20833333       0.33333333 </v>
   <v>       0.30357143      -0.20833333       0.33333333 </v>
   <v>       0.33928571      -0.20833333       0.33333333 </v>
   <v>       0.37500000      -0.20833333       0.33333333 </v>
   <v>       0.41071429      -0.20833333       0.33333333 </v>
   <v>       0.44642857      -0.20833333       0.33333333 </v>
   <v>       0.48214286      -0.20833333       0.33333333 </v>
   <v>      -0.48214286      -0.20833333       0.33333333 </v>
   <v>      -0.44642857      -0.20833333       0.33333333 </v>
   <v>      -0.41071429      -0.20833333       0.33333333 </v>
   <v>      -0.37500000      -0.20833333       0.33333333 </v>
   <v>      -0.33928571      -0.20833333       0.33333333 </v>
   <v>      -0.30357143      -0.20833333       0.33333333 </v>
   <v>      -0.26785714      -0.20833333       0.33333333 </v>
   <v>      -0.23214286      -0.20833333       0.33333333 </v>
   <v>      -0.19642857      -0.20833333       0.33333333 </v>
   <v>      -0.16071429      -0.20833333       0.33333333 </v>
   <v>      -0.12500000      -0.20833333       0.33333333 </v>
   <v>      -0.08928571      -0.20833333       0.33333333 </v>
   <v>      -0.05357143      -0.20833333       0.33333333 </v>
   <v>      -0.01785714      -0.20833333       0.33333333 </v>
   <v>       0.01785714      -0.12500000       0.33333333 </v>
   <v>       0.05357143      -0.12500000       0.33333333 </v>
   <v>       0.08928571      -0.12500000       0.33333333 </v>
   <v>       0.12500000      -0.12500000       0.33333333 </v>
   <v>       0.16071429      -0.12500000       0.33333333 </v>
   <v>       0.19642857      -0.12500000       0.33333333 </v>
   <v>       0.23214286      -0.12500000       0.33333333 </v>
   <v>       0.26785714      -0.12500000       0.33333333 </v>
   <v>       0.30357143      -0.12500000       0.33333333 </v>
   <v>       0.33928571      -0.12500000       0.33333333 </v>
   <v>       0.37500000      -0.12500000       0.33333333 </v>
   <v>       0.41071429      -0.12500000       0.33333333 </v>
   <v>       0.44642857      -0.12500000       0.33333333 </v>
   <v>       0.48214286      -0.12500000       0.33333333 </v>
   <v>      -0.48214286      -0.12500000       0.33333333 </v>
   <v>      -0.44642857      -0.12500000       0.33333333 </v>
   <v>      -0.41071429      -0.12500000       0.33333333 </v>
   <v>      -0.37500000      -0.12500000       0.33333333 </v>
   <v>      -0.33928571      -0.12500000       0.33333333 </v>
   <v>      -0.30357143      -0.12500000       0.33333333 </v>
   <v>      -0.26785714      -0.12500000       0.33333333 </v>
   <v>      -0.23214286      -0.12500000       0.33333333 </v>
   <v>      -0.19642857      -0.12500000       0.33333333 </v>
   <v>      -0.16071429      -0.12500000       0.33333333 </v>
   <v>      -0.12500000      -0.12500000       0.33333333 </v>
   <v>      -0.08928571      -0.12500000       0.33333333 </v>
   <v>      -0.05357143      -0.12500000       0.33333333 </v>
   <v>      -0.01785714      -0.12500000       0.33333333 </v>
   <v>       0.01785714      -0.04166667       0.33333333 </v>
   <v>       0.05357143      -0.04166667       0.33333333 </v>
   <v>       0.08928571      -0.04166667       0.33333333 </v>
   <v>       0.12500000      -0.04166667       0.33333333 </v>
   <v>       0.16071429      -0.04166667       0.33333333 </v>
   <v>       0.19642857      -0.04166667       0.33333333 </v>
   <v>       0.23214286      -0.04166667       0.33333333 </v>
   <v>       0.26785714      -0.04166667       0.33333333 </v>
   <v>       0.30357143      -0.04166667       0.33333333 </v>
   <v>       0.33928571      -0.04166667       0.33333333 </v>
   <v>       0.37500000      -0.04166667       0.33333333 </v>
   <v>       0.41071429      -0.04166667       0.33333333 </v>
   <v>       0.44642857      -0.04166667       0.33333333 </v>
   <v>       0.48214286      -0.04166667       0.33333333 </v>
   <v>      -0.48214286      -0.04166667       0.33333333 </v>
   <v>      -0.44642857      -0.04166667       0.33333333 </v>
   <v>      -0.41071429      -0.04166667       0.33333333 </v>
   <v>      -0.37500000      -0.04166667       0.33333333 </v>
   <v>      -0.33928571      -0.04166667       0.33333333 </v>
   <v>      -0.30357143      -0.04166667       0.33333333 </v>
   <v>      -0.26785714      -0.04166667       0.33333333 </v>
   <v>      -0.23214286      -0.04166667       0.33333333 </v>
   <v>      -0.19642857      -0.04166667       0.33333333 </v>
   <v>      -0.16071429      -0.04166667       0.33333333 </v>
   <v>      -0.12500000      -0.04166667       0.33333333 </v>
   <v>      -0.08928571      -0.04166667       0.33333333 </v>
   <v>      -0.05357143      -0.04166667       0.33333333 </v>
   <v>      -0.01785714      -0.04166667       0.33333333 </v>
  </varray>
  <varray name="weights" >
   <v>       0.00198413 </v>
   <v>       0.00198413 </v>
   <v>       0.00198413 </v>
   <v>       0.00198413 </v>
   <v>       0.00198413 </v>
   <v>       0.00198413 </v>
   <v>       0.00198413 </v>
   <v>       0.00198413 </v>
   <v>       0.00198413 </v>
   <v>       0.00198413 </v>
   <v>       0.00198413 </v>
   <v>       0.00198413 </v>
   <v>       0.00198413 </v>
   <v>       0.00198413 </v>
   <v>       0.00198413 </v>
   <v>       0.00198413 </v>
   <v>       0.00198413 </v>
   <v>       0.00198413 </v>
   <v>       0.00198413 </v>
   <v>       0.00198413 </v>
   <v>       0.00198413 </v>
   <v>       0.00198413 </v>
   <v>       0.00198413 </v>
   <v>       0.00198413 </v>
   <v>       0.00198413 </v>
   <v>       0.00198413 </v>
   <v>       0.00198413 </v>
   <v>       0.00198413 </v>
   <v>       0.00198413 </v>
   <v>       0.00198413 </v>
   <v>       0.00198413 </v>
   <v>       0.00198413 </v>
   <v>       0.00198413 </v>
   <v>       0.00198413 </v>
   <v>       0.00198413 </v>
   <v>       0.00198413 </v>
   <v>       0.00198413 </v>
   <v>       0.00198413 </v>
   <v>       0.00198413 </v>
   <v>       0.00198413 </v>
   <v>       0.00198413 </v>
   <v>       0.00198413 </v>
   <v>       0.00198413 </v>
   <v>       0.00198413 </v>
   <v>       0.00198413 </v>
   <v>       0.00198413 </v>
   <v>       0.00198413 </v>
   <v>       0.00198413 </v>
   <v>       0.00198413 </v>
   <v>       0.00198413 </v>
   <v>       0.00198413 </v>
   <v>       0.00198413 </v>
   <v>       0.00198413 </v>
   <v>       0.00198413 </v>
   <v>       0.00198413 </v>
   <v>       0.00198413 </v>
   <v>       0.00198413 </v>
   <v>       0.00198413 </v>
   <v>       0.00198413 </v>
   <v>       0.00198413 </v>
   <v>       0.00198413 </v>
   <v>       0.00198413 </v>
   <v>       0.00198413 </v>
   <v>       0.00198413 </v>
   <v>       0.00198413 </v>
   <v>       0.00198413 </v>
   <v>       0.00198413 </v>
   <v>       0.00198413 </v>
   <v>       0.00198413 </v>
   <v>       0.00198413 </v>
   <v>       0.00198413 </v>
   <v>       0.00198413 </v>
   <v>       0.00198413 </v>
   <v>       0.00198413 </v>
   <v>       0.00198413 </v>
   <v>       0.00198413 </v>
   <v>       0.00198413 </v>
   <v>       0.00198413 </v>
   <v>       0.00198413 </v>
   <v>       0.00198413 </v>
   <v>       0.00198413 </v>
   <v>       0.00198413 </v>
   <v>       0.00198413 </v>
   <v>       0.00198413 </v>
   <v>       0.00198413 </v>
   <v>       0.00198413 </v>
   <v>       0.00198413 </v>
   <v>       0.00198413 </v>
   <v>       0.00198413 </v>
   <v>       0.00198413 </v>
   <v>       0.00198413 </v>
   <v>       0.00198413 </v>
   <v>       0.00198413 </v>
   <v>       0.00198413 </v>
   <v>       0.00198413 </v>
   <v>       0.00198413 </v>
   <v>       0.00198413 </v>
   <v>       0.00198413 </v>
   <v>       0.00198413 </v>
   <v>       0.00198413 </v>
   <v>       0.00198413 </v>
   <v>       0.00198413 </v>
   <v>       0.00198413 </v>
   <v>       0.00198413 </v>
   <v>       0.00198413 </v>
   <v>       0.00198413 </v>
   <v>       0.00198413 </v>
   <v>       0.00198413 </v>
   <v>       0.00198413 </v>
   <v>       0.00198413 </v>
   <v>       0.00198413 </v>
   <v>       0.00198413 </v>
   <v>       0.00198413 </v>
   <v>       0.00198413 </v>
   <v>       0.00198413 </v>
   <v>       0.00198413 </v>
   <v>       0.00198413 </v>
   <v>       0.00198413 </v>
   <v>       0.00198413 </v>
   <v>       0.00198413 </v>
   <v>       0.00198413 </v>
   <v>       0.00198413 </v>
   <v>       0.00198413 </v>
   <v>       0.00198413 </v>
   <v>       0.00198413 </v>
   <v>       0.00198413 </v>
   <v>       0.00198413 </v>
   <v>       0.00198413 </v>
   <v>       0.00198413 </v>
   <v>       0.00198413 </v>
   <v>       0.00198413 </v>
   <v>       0.00198413 </v>
   <v>       0.00198413 </v>
   <v>       0.00198413 </v>
   <v>       0.00198413 </v>
   <v>       0.00198413 </v>
   <v>       0.00198413 </v>
   <v>       0.00198413 </v>
   <v>       0.00198413 </v>
   <v>       0.00198413 </v>
   <v>       0.00198413 </v>
   <v>       0.00198413 </v>
   <v>       0.00198413 </v>
   <v>       0.00198413 </v>
   <v>       0.00198413 </v>
   <v>       0.00198413 </v>
   <v>       0.00198413 </v>
   <v>       0.00198413 </v>
   <v>       0.00198413 </v>
   <v>       0.00198413 </v>
   <v>       0.00198413 </v>
   <v>       0.00198413 </v>
   <v>       0.00198413 </v>
   <v>       0.00198413 </v>
   <v>       0.00198413 </v>
   <v>       0.00198413 </v>
   <v>       0.00198413 </v>
   <v>       0.00198413 </v>
   <v>       0.00198413 </v>
   <v>       0.00198413 </v>
   <v>       0.00198413 </v>
   <v>       0.00198413 </v>
   <v>       0.00198413 </v>
   <v>       0.00198413 </v>
   <v>       0.00198413 </v>
   <v>       0.00198413 </v>
   <v>       0.00198413 </v>
   <v>       0.00198413 </v>
   <v>       0.00198413 </v>
   <v>       0.00198413 </v>
   <v>       0.00198413 </v>
   <v>       0.00198413 </v>
   <v>       0.00198413 </v>
   <v>       0.00198413 </v>
   <v>       0.00198413 </v>
   <v>       0.00198413 </v>
   <v>       0.00198413 </v>
   <v>       0.00198413 </v>
   <v>       0.00198413 </v>
   <v>       0.00198413 </v>
   <v>       0.00198413 </v>
   <v>       0.00198413 </v>
   <v>       0.00198413 </v>
   <v>       0.00198413 </v>
   <v>       0.00198413 </v>
   <v>       0.00198413 </v>
   <v>       0.00198413 </v>
   <v>       0.00198413 </v>
   <v>       0.00198413 </v>
   <v>       0.00198413 </v>
   <v>       0.00198413 </v>
   <v>       0.00198413 </v>
   <v>       0.00198413 </v>
   <v>       0.00198413 </v>
   <v>       0.00198413 </v>
   <v>       0.00198413 </v>
   <v>       0.00198413 </v>
   <v>       0.00198413 </v>
   <v>       0.00198413 </v>
   <v>       0.00198413 </v>
   <v>       0.00198413 </v>
   <v>       0.00198413 </v>
   <v>       0.00198413 </v>
   <v>       0.00198413 </v>
   <v>       0.00198413 </v>
   <v>       0.00198413 </v>
   <v>       0.00198413 </v>
   <v>       0.00198413 </v>
   <v>       0.00198413 </v>
   <v>       0.00198413 </v>
   <v>       0.00198413 </v>
   <v>       0.00198413 </v>
   <v>       0.00198413 </v>
   <v>       0.00198413 </v>
   <v>       0.00198413 </v>
   <v>       0.00198413 </v>
   <v>       0.00198413 </v>
   <v>       0.00198413 </v>
   <v>       0.00198413 </v>
   <v>       0.00198413 </v>
   <v>       0.00198413 </v>
   <v>       0.00198413 </v>
   <v>       0.00198413 </v>
   <v>       0.00198413 </v>
   <v>       0.00198413 </v>
   <v>       0.00198413 </v>
   <v>       0.00198413 </v>
   <v>       0.00198413 </v>
   <v>       0.00198413 </v>
   <v>       0.00198413 </v>
   <v>       0.00198413 </v>
   <v>       0.00198413 </v>
   <v>       0.00198413 </v>
   <v>       0.00198413 </v>
   <v>       0.00198413 </v>
   <v>       0.00198413 </v>
   <v>       0.00198413 </v>
   <v>       0.00198413 </v>
   <v>       0.00198413 </v>
   <v>       0.00198413 </v>
   <v>       0.00198413 </v>
   <v>       0.00198413 </v>
   <v>       0.00198413 </v>
   <v>       0.00198413 </v>
   <v>       0.00198413 </v>
   <v>       0.00198413 </v>
   <v>       0.00198413 </v>
   <v>       0.00198413 </v>
   <v>       0.00198413 </v>
   <v>       0.00198413 </v>
   <v>       0.00198413 </v>
   <v>       0.00198413 </v>
   <v>       0.00198413 </v>
   <v>       0.00198413 </v>
   <v>       0.00198413 </v>
   <v>       0.00198413 </v>
   <v>       0.00198413 </v>
   <v>       0.00198413 </v>
   <v>       0.00198413 </v>
   <v>       0.00198413 </v>
   <v>       0.00198413 </v>
   <v>       0.00198413 </v>
   <v>       0.00198413 </v>
   <v>       0.00198413 </v>
   <v>       0.00198413 </v>
   <v>       0.00198413 </v>
   <v>       0.00198413 </v>
   <v>       0.00198413 </v>
   <v>       0.00198413 </v>
   <v>       0.00198413 </v>
   <v>       0.00198413 </v>
   <v>       0.00198413 </v>
   <v>       0.00198413 </v>
   <v>       0.00198413 </v>
   <v>       0.00198413 </v>
   <v>       0.00198413 </v>
   <v>       0.00198413 </v>
   <v>       0.00198413 </v>
   <v>       0.00198413 </v>
   <v>       0.00198413 </v>
   <v>       0.00198413 </v>
   <v>       0.00198413 </v>
   <v>       0.00198413 </v>
   <v>       0.00198413 </v>
   <v>       0.00198413 </v>
   <v>       0.00198413 </v>
   <v>       0.00198413 </v>
   <v>       0.00198413 </v>
   <v>       0.00198413 </v>
   <v>       0.00198413 </v>
   <v>       0.00198413 </v>
   <v>       0.00198413 </v>
   <v>       0.00198413 </v>
   <v>       0.00198413 </v>
   <v>       0.00198413 </v>
   <v>       0.00198413 </v>
   <v>       0.00198413 </v>
   <v>       0.00198413 </v>
   <v>       0.00198413 </v>
   <v>       0.00198413 </v>
   <v>       0.00198413 </v>
   <v>       0.00198413 </v>
   <v>       0.00198413 </v>
   <v>       0.00198413 </v>
   <v>       0.00198413 </v>
   <v>       0.00198413 </v>
   <v>       0.00198413 </v>
   <v>       0.00198413 </v>
   <v>       0.00198413 </v>
   <v>       0.00198413 </v>
   <v>       0.00198413 </v>
   <v>       0.00198413 </v>
   <v>       0.00198413 </v>
   <v>       0.00198413 </v>
   <v>       0.00198413 </v>
   <v>       0.00198413 </v>
   <v>       0.00198413 </v>
   <v>       0.00198413 </v>
   <v>       0.00198413 </v>
   <v>       0.00198413 </v>
   <v>       0.00198413 </v>
   <v>       0.00198413 </v>
   <v>       0.00198413 </v>
   <v>       0.00198413 </v>
   <v>       0.00198413 </v>
   <v>       0.00198413 </v>
   <v>       0.00198413 </v>
   <v>       0.00198413 </v>
   <v>       0.00198413 </v>
   <v>       0.00198413 </v>
   <v>       0.00198413 </v>
   <v>       0.00198413 </v>
   <v>       0.00198413 </v>
   <v>       0.00198413 </v>
   <v>       0.00198413 </v>
   <v>       0.00198413 </v>
   <v>       0.00198413 </v>
   <v>       0.00198413 </v>
   <v>       0.00198413 </v>
   <v>       0.00198413 </v>
   <v>       0.00198413 </v>
   <v>       0.00198413 </v>
   <v>       0.00198413 </v>
   <v>       0.00198413 </v>
   <v>       0.00198413 </v>
   <v>       0.00198413 </v>
   <v>       0.00198413 </v>
   <v>       0.00198413 </v>
   <v>       0.00198413 </v>
   <v>       0.00198413 </v>
   <v>       0.00198413 </v>
   <v>       0.00198413 </v>
   <v>       0.00198413 </v>
   <v>       0.00198413 </v>
   <v>       0.00198413 </v>
   <v>       0.00198413 </v>
   <v>       0.00198413 </v>
   <v>       0.00198413 </v>
   <v>       0.00198413 </v>
   <v>       0.00198413 </v>
   <v>       0.00198413 </v>
   <v>       0.00198413 </v>
   <v>       0.00198413 </v>
   <v>       0.00198413 </v>
   <v>       0.00198413 </v>
   <v>       0.00198413 </v>
   <v>       0.00198413 </v>
   <v>       0.00198413 </v>
   <v>       0.00198413 </v>
   <v>       0.00198413 </v>
   <v>       0.00198413 </v>
   <v>       0.00198413 </v>
   <v>       0.00198413 </v>
   <v>       0.00198413 </v>
   <v>       0.00198413 </v>
   <v>       0.00198413 </v>
   <v>       0.00198413 </v>
   <v>       0.00198413 </v>
   <v>       0.00198413 </v>
   <v>       0.00198413 </v>
   <v>       0.00198413 </v>
   <v>       0.00198413 </v>
   <v>       0.00198413 </v>
   <v>       0.00198413 </v>
   <v>       0.00198413 </v>
   <v>       0.00198413 </v>
   <v>       0.00198413 </v>
   <v>       0.00198413 </v>
   <v>       0.00198413 </v>
   <v>       0.00198413 </v>
   <v>       0.00198413 </v>
   <v>       0.00198413 </v>
   <v>       0.00198413 </v>
   <v>       0.00198413 </v>
   <v>       0.00198413 </v>
   <v>       0.00198413 </v>
   <v>       0.00198413 </v>
   <v>       0.00198413 </v>
   <v>       0.00198413 </v>
   <v>       0.00198413 </v>
   <v>       0.00198413 </v>
   <v>       0.00198413 </v>
   <v>       0.00198413 </v>
   <v>       0.00198413 </v>
   <v>       0.00198413 </v>
   <v>       0.00198413 </v>
   <v>       0.00198413 </v>
   <v>       0.00198413 </v>
   <v>       0.00198413 </v>
   <v>       0.00198413 </v>
   <v>       0.00198413 </v>
   <v>       0.00198413 </v>
   <v>       0.00198413 </v>
   <v>       0.00198413 </v>
   <v>       0.00198413 </v>
   <v>       0.00198413 </v>
   <v>       0.00198413 </v>
   <v>       0.00198413 </v>
   <v>       0.00198413 </v>
   <v>       0.00198413 </v>
   <v>       0.00198413 </v>
   <v>       0.00198413 </v>
   <v>       0.00198413 </v>
   <v>       0.00198413 </v>
   <v>       0.00198413 </v>
   <v>       0.00198413 </v>
   <v>       0.00198413 </v>
   <v>       0.00198413 </v>
   <v>       0.00198413 </v>
   <v>       0.00198413 </v>
   <v>       0.00198413 </v>
   <v>       0.00198413 </v>
   <v>       0.00198413 </v>
   <v>       0.00198413 </v>
   <v>       0.00198413 </v>
   <v>       0.00198413 </v>
   <v>       0.00198413 </v>
   <v>       0.00198413 </v>
   <v>       0.00198413 </v>
   <v>       0.00198413 </v>
   <v>       0.00198413 </v>
   <v>       0.00198413 </v>
   <v>       0.00198413 </v>
   <v>       0.00198413 </v>
   <v>       0.00198413 </v>
   <v>       0.00198413 </v>
   <v>       0.00198413 </v>
   <v>       0.00198413 </v>
   <v>       0.00198413 </v>
   <v>       0.00198413 </v>
   <v>       0.00198413 </v>
   <v>       0.00198413 </v>
   <v>       0.00198413 </v>
   <v>       0.00198413 </v>
   <v>       0.00198413 </v>
   <v>       0.00198413 </v>
   <v>       0.00198413 </v>
   <v>       0.00198413 </v>
   <v>       0.00198413 </v>
   <v>       0.00198413 </v>
   <v>       0.00198413 </v>
   <v>       0.00198413 </v>
   <v>       0.00198413 </v>
   <v>       0.00198413 </v>
   <v>       0.00198413 </v>
   <v>       0.00198413 </v>
   <v>       0.00198413 </v>
   <v>       0.00198413 </v>
   <v>       0.00198413 </v>
   <v>       0.00198413 </v>
   <v>       0.00198413 </v>
   <v>       0.00198413 </v>
   <v>       0.00198413 </v>
   <v>       0.00198413 </v>
   <v>       0.00198413 </v>
   <v>       0.00198413 </v>
   <v>       0.00198413 </v>
   <v>       0.00198413 </v>
   <v>       0.00198413 </v>
   <v>       0.00198413 </v>
   <v>       0.00198413 </v>
   <v>       0.00198413 </v>
   <v>       0.00198413 </v>
   <v>       0.00198413 </v>
   <v>       0.00198413 </v>
   <v>       0.00198413 </v>
   <v>       0.00198413 </v>
   <v>       0.00198413 </v>
   <v>       0.00198413 </v>
   <v>       0.00198413 </v>
   <v>       0.00198413 </v>
   <v>       0.00198413 </v>
   <v>       0.00198413 </v>
   <v>       0.00198413 </v>
   <v>       0.00198413 </v>
   <v>       0.00198413 </v>
   <v>       0.00198413 </v>
   <v>       0.00198413 </v>
   <v>       0.00198413 </v>
   <v>       0.00198413 </v>
   <v>       0.00198413 </v>
   <v>       0.00198413 </v>
   <v>       0.00198413 </v>
   <v>       0.00198413 </v>
  </varray>
 </kpoints>
 <parameters>
  <separator name="general" >
   <i type="string" name="SYSTEM">Al fcc relaxation</i>
   <i type="logical" name="LCOMPAT"> F  </i>
  </separator>
  <separator name="electronic" >
   <i type="string" name="PREC">accura</i>
   <i name="ENMAX">    400.00000000</i>
   <i name="ENAUG">    291.05200000</i>
   <i name="EDIFF">      0.00000100</i>
   <i type="int" name="IALGO">    68</i>
   <i type="int" name="IWAVPR">    10</i>
   <i type="int" name="NBANDS">    64</i>
   <i name="NELECT">     48.00000000</i>
   <i type="int" name="TURBO">     0</i>
   <i type="int" name="IRESTART">     0</i>
   <i type="int" name="NREBOOT">     0</i>
   <i type="int" name="NMIN">     0</i>
   <i name="EREF">      0.00000000</i>
   <separator name="electronic smearing" >
    <i type="int" name="ISMEAR">     1</i>
    <i name="SIGMA">      0.20000000</i>
    <i name="KSPACING">      0.08000000</i>
    <i type="logical" name="KGAMMA"> T  </i>
   </separator>
   <separator name="electronic projectors" >
    <i type="logical" name="LREAL"> T  </i>
    <v name="ROPT">     -0.00025000</v>
    <i type="int" name="LMAXPAW">  -100</i>
    <i type="int" name="LMAXMIX">     2</i>
    <i type="logical" name="NLSPLINE"> F  </i>
   </separator>
   <separator name="electronic startup" >
    <i type="int" name="ISTART">     0</i>
    <i type="int" name="ICHARG">     2</i>
    <i type="int" name="INIWAV">     1</i>
   </separator>
   <separator name="electronic spin" >
    <i type="int" name="ISPIN">     1</i>
    <i type="logical" name="LNONCOLLINEAR"> F  </i>
    <v name="MAGMOM">      1.00000000      1.00000000      1.00000000      1.00000000      1.00000000      1.00000000      1.00000000      1.00000000      1.00000000      1.00000000      1.00000000      1.00000000      1.00000000      1.00000000      1.00000000      1.00000000</v>
    <i name="NUPDOWN">     -1.00000000</i>
    <i type="logical" name="LSORBIT"> F  </i>
    <v name="SAXIS">      0.00000000      0.00000000      1.00000000</v>
    <i type="logical" name="LSPIRAL"> F  </i>
    <v name="QSPIRAL">      0.00000000      0.00000000      0.00000000</v>
    <i type="logical" name="LZEROZ"> F  </i>
   </separator>
   <separator name="electronic exchange-correlation" >
    <i type="logical" name="LASPH"> F  </i>
    <i type="logical" name="LMETAGGA"> F  </i>
   </separator>
   <separator name="electronic convergence" >
    <i type="int" name="NELM">    60</i>
    <i type="int" name="NELMDL">    -5</i>
    <i type="int" name="NELMIN">     4</i>
    <i name="ENINI">    400.00000000</i>
    <separator name="electronic convergence detail" >
     <i type="logical" name="LDIAG"> T  </i>
     <i type="logical" name="LSUBROT"> F  </i>
     <i name="WEIMIN">      0.00000000</i>
     <i name="EBREAK">      0.00000000</i>
     <i name="DEPER">      0.30000000</i>
     <i type="int" name="NRMM">     4</i>
     <i name="TIME">      0.40000000</i>
    </separator>
   </separator>
   <separator name="electronic mixer" >
    <i name="AMIX">      0.40000000</i>
    <i name="BMIX">      1.00000000</i>
    <i name="AMIN">      0.10000000</i>
    <i name="AMIX_MAG">      1.60000000</i>
    <i name="BMIX_MAG">      1.00000000</i>
    <separator name="electronic mixer details" >
     <i type="int" name="IMIX">     4</i>
     <i type="logical" name="MIXFIRST"> F  </i>
     <i type="int" name="MAXMIX">   -45</i>
     <i name="WC">    100.00000000</i>
     <i type="int" name="INIMIX">     1</i>
     <i type="int" name="MIXPRE">     1</i>
     <i type="int" name="MREMOVE">     5</i>
    </separator>
   </separator>
   <separator name="electronic dipolcorrection" >
    <i type="logical" name="LDIPOL"> F  </i>
    <i type="logical" name="LMONO"> F  </i>
    <i type="int" name="IDIPOL">     0</i>
    <i name="EPSILON">      1.00000000</i>
    <v name="DIPOL">   -100.00000000   -100.00000000   -100.00000000</v>
    <i name="EFIELD">      0.00000000</i>
   </separator>
  </separator>
  <separator name="grids" >
   <i type="int" name="NGX">    20</i>
   <i type="int" name="NGY">    48</i>
   <i type="int" name="NGZ">   180</i>
   <i type="int" name="NGXF">    40</i>
   <i type="int" name="NGYF">    96</i>
   <i type="int" name="NGZF">   360</i>
   <i type="logical" name="ADDGRID"> F  </i>
  </separator>
  <separator name="ionic" >
   <i type="int" name="NSW">     0</i>
   <i type="int" name="IBRION">    -1</i>
   <i type="int" name="MDALGO">     0</i>
   <i type="int" name="ISIF">     3</i>
   <i name="PSTRESS">      0.00000000</i>
   <i name="EDIFFG">      0.00001000</i>
   <i type="int" name="NFREE">     1</i>
   <i name="POTIM">      0.50000000</i>
   <i name="SMASS">     -3.00000000</i>
   <i name="SCALEE">      1.00000000</i>
  </separator>
  <separator name="ionic md" >
   <i name="TEBEG">      0.00010000</i>
   <i name="TEEND">      0.00010000</i>
   <i type="int" name="NBLOCK">     1</i>
   <i type="int" name="KBLOCK">     1</i>
   <i type="int" name="NPACO">   256</i>
   <i name="APACO">     16.00000000</i>
  </separator>
  <separator name="symmetry" >
   <i type="int" name="ISYM">     2</i>
   <i name="SYMPREC">      0.00001000</i>
  </separator>
  <separator name="dos" >
   <i type="int" name="LORBIT">     0</i>
   <v name="RWIGS">     -1.00000000</v>
   <i type="int" name="NEDOS">   301</i>
   <i name="EMIN">     10.00000000</i>
   <i name="EMAX">    -10.00000000</i>
   <i name="EFERMI">      0.00000000</i>
  </separator>
  <separator name="writing" >
   <i type="int" name="NWRITE">     2</i>
   <i type="logical" name="LWAVE"> F  </i>
   <i type="logical" name="LDOWNSAMPLE"> F  </i>
   <i type="logical" name="LCHARG"> F  </i>
   <i type="logical" name="LPARD"> F  </i>
   <i type="logical" name="LVTOT"> F  </i>
   <i type="logical" name="LVHAR"> F  </i>
   <i type="logical" name="LELF"> F  </i>
   <i type="logical" name="LOPTICS"> F  </i>
   <v name="STM">      0.00000000      0.00000000      0.00000000      0.00000000      0.00000000      0.00000000      0.00000000</v>
  </separator>
  <separator name="performance" >
   <i type="int" name="NPAR">    32</i>
   <i type="int" name="NSIM">     4</i>
   <i type="int" name="NBLK">    -1</i>
   <i type="logical" name="LPLANE"> T  </i>
   <i type="logical" name="LSCALAPACK"> T  </i>
   <i type="logical" name="LSCAAWARE"> F  </i>
   <i type="logical" name="LSCALU"> F  </i>
   <i type="logical" name="LASYNC"> F  </i>
   <i type="logical" name="LORBITALREAL"> F  </i>
  </separator>
  <separator name="miscellaneous" >
   <i type="int" name="IDIOT">     3</i>
   <i type="int" name="ISPECIAL">     0</i>
   <i type="logical" name="LMUSIC"> F  </i>
   <v name="POMASS">     26.98100000</v>
   <v name="DARWINR">      0.00000000</v>
   <v name="DARWINV">      1.00000000</v>
   <i type="logical" name="LCORR"> T  </i>
  </separator>
  <i type="logical" name="GGA_COMPAT"> T  </i>
  <i type="logical" name="LBERRY"> F  </i>
  <i type="int" name="ICORELEVEL">     0</i>
  <i type="logical" name="LDAU"> F  </i>
  <i type="int" name="I_CONSTRAINED_M">     0</i>
  <separator name="electronic exchange-correlation" >
   <i type="string" name="GGA">--</i>
   <i type="int" name="VOSKOWN">     0</i>
   <i type="logical" name="LHFCALC"> F  </i>
   <i type="string" name="PRECFOCK"></i>
   <i type="logical" name="LSYMGRAD"> F  </i>
   <i type="logical" name="LHFONE"> F  </i>
   <i type="logical" name="LRHFCALC"> F  </i>
   <i type="logical" name="LTHOMAS"> F  </i>
   <i type="logical" name="LMODELHF"> F  </i>
   <i name="ENCUT4O">     -1.00000000</i>
   <i type="int" name="EXXOEP">     0</i>
   <i type="int" name="FOURORBIT">     0</i>
   <i name="AEXX">      0.00000000</i>
   <i name="HFALPHA">      0.00000000</i>
   <i name="MCALPHA">      0.00000000</i>
   <i name="ALDAX">      1.00000000</i>
   <i name="AGGAX">      1.00000000</i>
   <i name="ALDAC">      1.00000000</i>
   <i name="AGGAC">      1.00000000</i>
   <i type="int" name="NKREDX">     1</i>
   <i type="int" name="NKREDY">     1</i>
   <i type="int" name="NKREDZ">     1</i>
   <i type="logical" name="SHIFTRED"> F  </i>
   <i type="logical" name="ODDONLY"> F  </i>
   <i type="logical" name="EVENONLY"> F  </i>
   <i type="int" name="LMAXFOCK">     0</i>
   <i type="int" name="NMAXFOCKAE">     0</i>
   <i type="logical" name="LFOCKAEDFT"> F  </i>
   <i name="HFSCREEN">      0.00000000</i>
   <i name="HFSCREENC">      0.00000000</i>
   <i type="int" name="NBANDSGWLOW">     0</i>
  </separator>
  <separator name="vdW DFT" >
   <i type="logical" name="LUSE_VDW"> F  </i>
   <i name="Zab_VDW">     -0.84910000</i>
   <i name="PARAM1">      0.12340000</i>
   <i name="PARAM2">      1.00000000</i>
   <i name="PARAM3">      0.00000000</i>
  </separator>
  <separator name="model GW" >
   <i type="int" name="MODEL_GW">     0</i>
   <i name="MODEL_EPS0">     19.76606116</i>
   <i name="MODEL_ALPHA">      1.00000000</i>
  </separator>
  <separator name="linear response parameters" >
   <i type="logical" name="LEPSILON"> F  </i>
   <i type="logical" name="LRPA"> F  </i>
   <i type="logical" name="LNABLA"> F  </i>
   <i type="logical" name="LVEL"> F  </i>
   <i type="int" name="KINTER">     0</i>
   <i name="CSHIFT">      0.10000000</i>
   <i name="OMEGAMAX">     -1.00000000</i>
   <i name="DEG_THRESHOLD">      0.00200000</i>
   <i name="RTIME">     -0.10000000</i>
   <i name="WPLASMAI">      0.00000000</i>
   <v name="DFIELD">      0.00000000      0.00000000      0.00000000</v>
   <v name="WPLASMA">      0.00000000      0.00000000      0.00000000      0.00000000      0.00000000      0.00000000      0.00000000      0.00000000      0.00000000</v>
  </separator>
  <separator name="orbital magnetization" >
   <i type="logical" name="NUCIND"> F  </i>
   <v name="MAGPOS">      0.00000000      0.00000000      0.00000000</v>
   <i type="logical" name="LNICSALL"> T  </i>
   <i type="logical" name="ORBITALMAG"> F  </i>
   <i type="logical" name="LMAGBLOCH"> F  </i>
   <i type="logical" name="LCHIMAG"> F  </i>
   <i type="logical" name="LGAUGE"> T  </i>
   <i type="int" name="MAGATOM">     0</i>
   <v name="MAGDIPOL">      0.00000000      0.00000000      0.00000000</v>
   <v name="AVECCONST">      0.00000000      0.00000000      0.00000000</v>
  </separator>
  <separator name="response functions" >
   <i type="logical" name="LADDER"> F  </i>
   <i type="logical" name="LRPAFORCE"> F  </i>
   <i type="logical" name="LFXC"> F  </i>
   <i type="logical" name="LHARTREE"> T  </i>
   <i type="int" name="IBSE">     0</i>
   <v type="int" name="KPOINT">    -1     0     0     0</v>
   <i type="logical" name="LTCTE"> F  </i>
   <i type="logical" name="LTETE"> F  </i>
   <i type="logical" name="LTRIPLET"> F  </i>
   <i type="logical" name="LFXCEPS"> F  </i>
   <i type="logical" name="LFXHEG"> F  </i>
   <i type="int" name="NATURALO">     2</i>
   <i type="logical" name="L2ORDER"> F  </i>
   <i type="logical" name="LMP2LT"> F  </i>
   <i type="logical" name="LUSEW"> F  </i>
   <i name="ENCUTGW">     -2.00000000</i>
   <i name="ENCUTGWSOFT">     -2.00000000</i>
   <i name="ENCUTLF">     -1.00000000</i>
   <i type="int" name="LMAXMP2">    -1</i>
   <i name="SCISSOR">      0.00000000</i>
   <i type="int" name="NOMEGA">     0</i>
   <i type="int" name="NOMEGAR">     0</i>
   <i type="int" name="NBANDSGW">    -1</i>
   <i type="int" name="NBANDSO">    -1</i>
   <i type="int" name="NBANDSV">    -1</i>
   <i type="int" name="NELM">    60</i>
   <i type="int" name="NELMHF">     1</i>
   <i type="int" name="DIM">     3</i>
   <i type="int" name="ANTIRES">     0</i>
   <i name="OMEGAMAX">    -30.00000000</i>
   <i name="OMEGAMIN">    -30.00000000</i>
   <i name="OMEGATL">   -200.00000000</i>
   <i type="int" name="OMEGAGRID">   140</i>
   <i name="CSHIFT">     -0.10000000</i>
   <i type="logical" name="SELFENERGY"> F  </i>
   <i type="logical" name="LSPECTRAL"> F  </i>
   <i type="logical" name="LSPECTRALGW"> F  </i>
   <i type="logical" name="LSINGLES"> F  </i>
   <i type="logical" name="LFERMIGW"> F  </i>
   <i type="logical" name="ODDONLYGW"> F  </i>
   <i type="logical" name="EVENONLYGW"> F  </i>
   <i type="int" name="NKREDLFX">     1</i>
   <i type="int" name="NKREDLFY">     1</i>
   <i type="int" name="NKREDLFZ">     1</i>
   <i type="int" name="MAXMEM">  2800</i>
   <i type="int" name="TELESCOPE">     0</i>
   <i type="int" name="TAUPAR">     1</i>
   <i type="int" name="OMEGAPAR">    -1</i>
   <i name="LAMBDA">      1.00000000</i>
  </separator>
  <separator name="External order field" >
   <i name="OFIELD_KAPPA">      0.00000000</i>
   <v name="OFIELD_K">      0.00000000      0.00000000      0.00000000</v>
   <i name="OFIELD_Q6_NEAR">      0.00000000</i>
   <i name="OFIELD_Q6_FAR">      0.00000000</i>
   <i name="OFIELD_A">      0.00000000</i>
  </separator>
 </parameters>
 <atominfo>
  <atoms>      16 </atoms>
  <types>       1 </types>
  <array name="atoms" >
   <dimension dim="1">ion</dimension>
   <field type="string">element</field>
   <field type="int">atomtype</field>
   <set>
    <rc><c>Al</c><c>   1</c></rc>
    <rc><c>Al</c><c>   1</c></rc>
    <rc><c>Al</c><c>   1</c></rc>
    <rc><c>Al</c><c>   1</c></rc>
    <rc><c>Al</c><c>   1</c></rc>
    <rc><c>Al</c><c>   1</c></rc>
    <rc><c>Al</c><c>   1</c></rc>
    <rc><c>Al</c><c>   1</c></rc>
    <rc><c>Al</c><c>   1</c></rc>
    <rc><c>Al</c><c>   1</c></rc>
    <rc><c>Al</c><c>   1</c></rc>
    <rc><c>Al</c><c>   1</c></rc>
    <rc><c>Al</c><c>   1</c></rc>
    <rc><c>Al</c><c>   1</c></rc>
    <rc><c>Al</c><c>   1</c></rc>
    <rc><c>Al</c><c>   1</c></rc>
   </set>
  </array>
  <array name="atomtypes" >
   <dimension dim="1">type</dimension>
   <field type="int">atomspertype</field>
   <field type="string">element</field>
   <field>mass</field>
   <field>valence</field>
   <field type="string">pseudopotential</field>
   <set>
    <rc><c>  16</c><c>Al</c><c>     26.98100000</c><c>      3.00000000</c><c>  PAW_PBE Al 04Jan2001                  </c></rc>
   </set>
  </array>
 </atominfo>
 <structure name="initialpos" >
  <crystal>
   <varray name="basis" >
    <v>       2.85595457       0.00000000       0.00000000 </v>
    <v>      -0.00000000       6.96846383      -0.61593100 </v>
    <v>       0.01000000       0.00000000      26.48503317 </v>
   </varray>
   <i name="volume">    527.09496419 </i>
   <varray name="rec_basis" >
    <v>       0.35014563      -0.00001169      -0.00013221 </v>
    <v>       0.00000000       0.14350365       0.00000000 </v>
    <v>      -0.00000000       0.00333729       0.03775717 </v>
   </varray>
  </crystal>
  <varray name="positions" >
   <v>       0.00000000       0.67187500       0.89062500 </v>
   <v>       0.00000000       0.35937500       0.95312500 </v>
   <v>       0.50000000       0.01562500       0.92187500 </v>
   <v>       0.50000000       0.70312500       0.98437500 </v>
   <v>       0.00000000       0.29687500       0.76562500 </v>
   <v>       0.00000000       0.98437500       0.82812500 </v>
   <v>       0.50000000       0.64062500       0.79687500 </v>
   <v>       0.50000000       0.32812500       0.85937500 </v>
   <v>       0.00000000       0.92187500       0.64062500 </v>
   <v>       0.00000000       0.60937500       0.70312500 </v>
   <v>       0.50000000       0.26562500       0.67187500 </v>
   <v>       0.50000000       0.95312500       0.73437500 </v>
   <v>       0.00000000       0.54687500       0.51562500 </v>
   <v>       0.00000000       0.23437500       0.57812500 </v>
   <v>       0.50000000       0.89062500       0.54687500 </v>
   <v>       0.50000000       0.57812500       0.60937500 </v>
  </varray>
 </structure>
 <calculation>
  <scstep>
   <time name="dav">   81.52   83.82</time>
   <time name="total">   81.59   83.91</time>
   <energy>
    <i name="alphaZ">     -1.63131009 </i>
    <i name="ewald">   4607.58592117 </i>
    <i name="hartreedc">  -5442.12525864 </i>
    <i name="XCdc">   -422.50074340 </i>
    <i name="pawpsdc">   1059.20251401 </i>
    <i name="pawaedc">   -547.92993211 </i>
    <i name="eentropy">     -0.00062701 </i>
    <i name="bandstr">    -61.49154485 </i>
    <i name="atom">    856.61046915 </i>
    <i name="e_fr_energy">     47.71948824 </i>
    <i name="e_wo_entrp">     47.72011525 </i>
    <i name="e_0_energy">     47.71969724 </i>
   </energy>
  </scstep>
  <scstep>
   <time name="dav">  108.27  111.20</time>
   <time name="total">  108.28  111.21</time>
   <energy>
    <i name="e_fr_energy">    -55.64803653 </i>
    <i name="e_wo_entrp">    -55.64299785 </i>
    <i name="e_0_energy">    -55.64635697 </i>
   </energy>
  </scstep>
  <scstep>
   <time name="dav">  111.42  114.32</time>
   <time name="total">  111.43  114.33</time>
   <energy>
    <i name="e_fr_energy">    -59.46947705 </i>
    <i name="e_wo_entrp">    -59.46457023 </i>
    <i name="e_0_energy">    -59.46784145 </i>
   </energy>
  </scstep>
  <scstep>
   <time name="dav">  129.69  132.93</time>
   <time name="total">  129.70  132.94</time>
   <energy>
    <i name="e_fr_energy">    -59.66580004 </i>
    <i name="e_wo_entrp">    -59.66090738 </i>
    <i name="e_0_energy">    -59.66416915 </i>
   </energy>
  </scstep>
  <scstep>
   <time name="dav">  121.79  124.79</time>
   <time name="total">  126.84  129.99</time>
   <energy>
    <i name="e_fr_energy">    -59.66854173 </i>
    <i name="e_wo_entrp">    -59.66364969 </i>
    <i name="e_0_energy">    -59.66691105 </i>
   </energy>
  </scstep>
  <scstep>
   <time name="diag">   16.40   16.90</time>
   <time name="diis">   70.90   72.77</time>
   <time name="orth">    1.06    1.08</time>
   <time name="total">   93.38   95.92</time>
   <energy>
    <i name="e_fr_energy">    -59.38882637 </i>
    <i name="e_wo_entrp">    -59.38422834 </i>
    <i name="e_0_energy">    -59.38729369 </i>
   </energy>
  </scstep>
  <scstep>
   <time name="diag">   16.52   17.01</time>
   <time name="diis">   63.19   64.86</time>
   <time name="orth">    1.04    1.08</time>
   <time name="total">   85.55   88.00</time>
   <energy>
    <i name="e_fr_energy">    -57.80868491 </i>
    <i name="e_wo_entrp">    -57.80711550 </i>
    <i name="e_0_energy">    -57.80816177 </i>
   </energy>
  </scstep>
  <scstep>
   <time name="diag">   16.39   16.89</time>
   <time name="diis">   72.12   74.10</time>
   <time name="orth">    1.11    1.14</time>
   <time name="total">   94.82   97.94</time>
   <energy>
    <i name="e_fr_energy">    -57.57158750 </i>
    <i name="e_wo_entrp">    -57.57158754 </i>
    <i name="e_0_energy">    -57.57158751 </i>
   </energy>
  </scstep>
  <scstep>
   <time name="diag">   16.49   17.04</time>
   <time name="diis">   72.43   74.44</time>
   <time name="orth">    1.06    1.08</time>
   <time name="total">   95.10   97.83</time>
   <energy>
    <i name="e_fr_energy">    -57.55628644 </i>
    <i name="e_wo_entrp">    -57.55658975 </i>
    <i name="e_0_energy">    -57.55638755 </i>
   </energy>
  </scstep>
  <scstep>
   <time name="diag">   16.40   16.92</time>
   <time name="diis">   71.57   73.43</time>
   <time name="orth">    1.04    1.08</time>
   <time name="total">   94.47   97.05</time>
   <energy>
    <i name="e_fr_energy">    -57.55395036 </i>
    <i name="e_wo_entrp">    -57.55437551 </i>
    <i name="e_0_energy">    -57.55409208 </i>
   </energy>
  </scstep>
  <scstep>
   <time name="diag">   16.36   16.87</time>
   <time name="diis">   70.79   72.63</time>
   <time name="orth">    1.05    1.08</time>
   <time name="total">   93.56   96.12</time>
   <energy>
    <i name="e_fr_energy">    -57.55277447 </i>
    <i name="e_wo_entrp">    -57.55323433 </i>
    <i name="e_0_energy">    -57.55292775 </i>
   </energy>
  </scstep>
  <scstep>
   <time name="diag">   16.42   16.93</time>
   <time name="diis">   72.86   74.83</time>
   <time name="orth">    1.11    1.14</time>
   <time name="total">   96.14   98.84</time>
   <energy>
    <i name="e_fr_energy">    -57.55309644 </i>
    <i name="e_wo_entrp">    -57.55359454 </i>
    <i name="e_0_energy">    -57.55326247 </i>
   </energy>
  </scstep>
  <scstep>
   <time name="diag">   17.54   18.02</time>
   <time name="diis">   72.46   74.40</time>
   <time name="orth">    1.10    1.14</time>
   <time name="total">   96.80   99.43</time>
   <energy>
    <i name="e_fr_energy">    -57.55324486 </i>
    <i name="e_wo_entrp">    -57.55377829 </i>
    <i name="e_0_energy">    -57.55342267 </i>
   </energy>
  </scstep>
  <scstep>
   <time name="diag">   17.50   17.96</time>
   <time name="diis">   74.72   76.71</time>
   <time name="orth">    1.12    1.15</time>
   <time name="total">   98.83  101.48</time>
   <energy>
    <i name="e_fr_energy">    -57.55356994 </i>
    <i name="e_wo_entrp">    -57.55411179 </i>
    <i name="e_0_energy">    -57.55375055 </i>
   </energy>
  </scstep>
  <scstep>
   <time name="diag">   17.46   17.95</time>
   <time name="diis">   70.53   72.45</time>
   <time name="orth">    1.16    1.19</time>
   <time name="total">   94.74   97.33</time>
   <energy>
    <i name="e_fr_energy">    -57.55372356 </i>
    <i name="e_wo_entrp">    -57.55426735 </i>
    <i name="e_0_energy">    -57.55390483 </i>
   </energy>
  </scstep>
  <scstep>
   <time name="diag">   17.73   18.25</time>
   <time name="diis">   69.63   71.51</time>
   <time name="orth">    1.07    1.09</time>
   <time name="total">   94.08   96.63</time>
   <energy>
    <i name="e_fr_energy">    -57.55390619 </i>
    <i name="e_wo_entrp">    -57.55445435 </i>
    <i name="e_0_energy">    -57.55408891 </i>
   </energy>
  </scstep>
  <scstep>
   <time name="diag">   16.68   17.17</time>
   <time name="diis">   64.36   66.19</time>
   <time name="orth">    1.03    1.08</time>
   <time name="total">   87.56   90.08</time>
   <energy>
    <i name="e_fr_energy">    -57.55410488 </i>
    <i name="e_wo_entrp">    -57.55465368 </i>
    <i name="e_0_energy">    -57.55428782 </i>
   </energy>
  </scstep>
  <scstep>
   <time name="diag">   16.48   16.98</time>
   <time name="diis">   63.12   64.89</time>
   <time name="orth">    1.05    1.09</time>
   <time name="total">   86.13   88.58</time>
   <energy>
    <i name="e_fr_energy">    -57.55419715 </i>
    <i name="e_wo_entrp">    -57.55474769 </i>
    <i name="e_0_energy">    -57.55438066 </i>
   </energy>
  </scstep>
  <scstep>
   <time name="diag">   16.58   17.03</time>
   <time name="diis">   61.61   63.33</time>
   <time name="orth">    1.06    1.10</time>
   <time name="total">   84.72   87.07</time>
   <energy>
    <i name="e_fr_energy">    -57.55424208 </i>
    <i name="e_wo_entrp">    -57.55479270 </i>
    <i name="e_0_energy">    -57.55442562 </i>
   </energy>
  </scstep>
  <scstep>
   <time name="diag">   16.44   16.94</time>
   <time name="diis">   60.84   62.58</time>
   <time name="orth">    1.07    1.10</time>
   <time name="total">   83.80   86.25</time>
   <energy>
    <i name="e_fr_energy">    -57.55424599 </i>
    <i name="e_wo_entrp">    -57.55479674 </i>
    <i name="e_0_energy">    -57.55442957 </i>
   </energy>
  </scstep>
  <scstep>
   <time name="diag">   16.50   16.95</time>
   <time name="diis">   57.04   58.48</time>
   <time name="orth">    1.03    1.07</time>
   <time name="total">   80.02   82.11</time>
   <energy>
    <i name="e_fr_energy">    -57.55424810 </i>
    <i name="e_wo_entrp">    -57.55479897 </i>
    <i name="e_0_energy">    -57.55443172 </i>
   </energy>
  </scstep>
  <scstep>
   <time name="diag">   16.42   16.93</time>
   <time name="diis">   54.85   56.36</time>
   <time name="orth">    1.05    1.08</time>
   <time name="total">   72.38   74.43</time>
   <energy>
    <i name="alphaZ">     -1.63131009 </i>
    <i name="ewald">   4607.58592117 </i>
    <i name="hartreedc">  -5503.81581727 </i>
    <i name="XCdc">   -420.53531946 </i>
    <i name="pawpsdc">   2144.07807748 </i>
    <i name="pawaedc">  -1632.99450567 </i>
    <i name="eentropy">      0.00055076 </i>
    <i name="bandstr">   -106.85231511 </i>
    <i name="atom">    856.61046915 </i>
    <i name="e_fr_energy">    -57.55424905 </i>
    <i name="e_wo_entrp">    -57.55479980 </i>
    <i name="e_0_energy">    -57.55443263 </i>
   </energy>
  </scstep>
  <structure>
   <crystal>
    <varray name="basis" >
     <v>       2.85595457       0.00000000       0.00000000 </v>
     <v>      -0.00000000       6.96846383      -0.61593100 </v>
     <v>       0.01000000       0.00000000      26.48503317 </v>
    </varray>
    <i name="volume">    527.09496419 </i>
    <varray name="rec_basis" >
     <v>       0.35014563      -0.00001169      -0.00013221 </v>
     <v>       0.00000000       0.14350365       0.00000000 </v>
     <v>      -0.00000000       0.00333729       0.03775717 </v>
    </varray>
   </crystal>
   <varray name="positions" >
    <v>       0.00000000       0.67187500       0.89062500 </v>
    <v>       0.00000000       0.35937500       0.95312500 </v>
    <v>       0.50000000       0.01562500       0.92187500 </v>
    <v>       0.50000000       0.70312500       0.98437500 </v>
    <v>       0.00000000       0.29687500       0.76562500 </v>
    <v>       0.00000000       0.98437500       0.82812500 </v>
    <v>       0.50000000       0.64062500       0.79687500 </v>
    <v>       0.50000000       0.32812500       0.85937500 </v>
    <v>       0.00000000       0.92187500       0.64062500 </v>
    <v>       0.00000000       0.60937500       0.70312500 </v>
    <v>       0.50000000       0.26562500       0.67187500 </v>
    <v>       0.50000000       0.95312500       0.73437500 </v>
    <v>       0.00000000       0.54687500       0.51562500 </v>
    <v>       0.00000000       0.23437500       0.57812500 </v>
    <v>       0.50000000       0.89062500       0.54687500 </v>
    <v>       0.50000000       0.57812500       0.60937500 </v>
   </varray>
  </structure>
  <varray name="forces" >
   <v>       0.00008022      -0.06842168      -0.07813131 </v>
   <v>      -0.00043017      -0.01104948      -0.00845004 </v>
   <v>      -0.00049255       0.08701085       0.28568701 </v>
   <v>      -0.00055124      -0.06316108      -0.13194809 </v>
   <v>      -0.00007339      -0.01770885       0.03060287 </v>
   <v>      -0.00002488      -0.02642423       0.00607853 </v>
   <v>       0.00008331       0.00122038       0.08013536 </v>
   <v>      -0.00009925       0.03038649      -0.07270342 </v>
   <v>       0.00009925      -0.03038649       0.07270342 </v>
   <v>      -0.00008331      -0.00122038      -0.08013536 </v>
   <v>       0.00002488       0.02642423      -0.00607853 </v>
   <v>       0.00007339       0.01770885      -0.03060287 </v>
   <v>       0.00055124       0.06316108       0.13194809 </v>
   <v>       0.00049255      -0.08701085      -0.28568701 </v>
   <v>       0.00043017       0.01104948       0.00845004 </v>
   <v>      -0.00008022       0.06842168       0.07813131 </v>
  </varray>
  <varray name="stress" >
   <v>     -10.76534885      -0.00729826      -0.04706306 </v>
   <v>      -0.00729825      -9.26811249      -0.87271487 </v>
   <v>      -0.04706309      -0.87271488       0.30563756 </v>
  </varray>
  <energy>
   <i name="e_fr_energy">    -57.55424905 </i>
   <i name="e_wo_entrp">    -57.55443263 </i>
   <i name="e_0_energy">      0.00055076 </i>
  </energy>
  <time name="totalsc"> 2192.87 2253.29</time>
  <eigenvalues>
   <array>
    <dimension dim="1">band</dimension>
    <dimension dim="2">kpoint</dimension>
    <dimension dim="3">spin</dimension>
    <field>eigene</field>
    <field>occ</field>
    <set>
     <set comment="spin 1">
      <set comment="kpoint 1">
       <r>   -8.9455    1.0000 </r>
       <r>   -8.3511    1.0000 </r>
       <r>   -7.4183    1.0000 </r>
       <r>   -6.2648    1.0000 </r>
       <r>   -6.1649    1.0000 </r>
       <r>   -5.7101    1.0000 </r>
       <r>   -5.6031    1.0000 </r>
       <r>   -5.1429    1.0000 </r>
       <r>   -4.9156    1.0000 </r>
       <r>   -4.5005    1.0000 </r>
       <r>   -4.1285    1.0000 </r>
       <r>   -3.6326    1.0000 </r>
       <r>   -2.9997    1.0000 </r>
       <r>   -2.6417    1.0000 </r>
       <r>   -2.0838    1.0000 </r>
       <r>   -1.2986    1.0000 </r>
       <r>   -0.9777    1.0000 </r>
       <r>   -0.3292    1.0000 </r>
       <r>    0.0712    1.0000 </r>
       <r>    1.0451    1.0000 </r>
       <r>    1.5380    1.0024 </r>
       <r>    2.1783   -0.0055 </r>
       <r>    2.2805   -0.0325 </r>
       <r>    2.7836   -0.0000 </r>
       <r>    3.0030   -0.0000 </r>
       <r>    3.1409   -0.0000 </r>
       <r>    3.4907   -0.0000 </r>
       <r>    3.7959   -0.0000 </r>
       <r>    3.8224   -0.0000 </r>
       <r>    4.2334   -0.0000 </r>
       <r>    4.5993   -0.0000 </r>
       <r>    4.9427   -0.0000 </r>
       <r>    5.0877   -0.0000 </r>
       <r>    5.6367   -0.0000 </r>
       <r>    5.7006   -0.0000 </r>
       <r>    5.9375   -0.0000 </r>
       <r>    6.2404   -0.0000 </r>
       <r>    6.4731   -0.0000 </r>
       <r>    6.7668   -0.0000 </r>
       <r>    6.8988   -0.0000 </r>
       <r>    7.2226   -0.0000 </r>
       <r>    7.4751    0.0000 </r>
       <r>    7.7008    0.0000 </r>
       <r>    7.8955    0.0000 </r>
       <r>    8.0463    0.0000 </r>
       <r>    8.1558    0.0000 </r>
       <r>    8.5699    0.0000 </r>
       <r>    8.7109    0.0000 </r>
       <r>    8.8751    0.0000 </r>
       <r>    8.9190    0.0000 </r>
       <r>    8.9480    0.0000 </r>
       <r>    9.0259    0.0000 </r>
       <r>    9.2902    0.0000 </r>
       <r>    9.4953    0.0000 </r>
       <r>    9.5587    0.0000 </r>
       <r>    9.9030    0.0000 </r>
       <r>    9.9721    0.0000 </r>
       <r>   10.0114    0.0000 </r>
       <r>   10.4112    0.0000 </r>
[...]
       <r>    8.0672    0.0000 </r>
       <r>    8.1640    0.0000 </r>
       <r>    8.4300    0.0000 </r>
       <r>    8.7138    0.0000 </r>
       <r>    8.9167    0.0000 </r>
       <r>    9.0640    0.0000 </r>
       <r>    9.1090    0.0000 </r>
       <r>    9.1728    0.0000 </r>
       <r>    9.2490    0.0000 </r>
       <r>    9.5808    0.0000 </r>
       <r>    9.6423    0.0000 </r>
       <r>    9.7082    0.0000 </r>
       <r>    9.8590    0.0000 </r>
       <r>   10.0100    0.0000 </r>
       <r>   10.0647    0.0000 </r>
       <r>   10.2870    0.0000 </r>
       <r>   10.6298    0.0000 </r>
       <r>   10.9850    0.0000 </r>
       <r>   11.2473    0.0000 </r>
      </set>
      <set comment="kpoint 504">
       <r>   -8.9455    1.0000 </r>
       <r>   -8.3511    1.0000 </r>
       <r>   -7.4183    1.0000 </r>
       <r>   -6.2648    1.0000 </r>
       <r>   -6.1649    1.0000 </r>
       <r>   -5.7101    1.0000 </r>
       <r>   -5.6031    1.0000 </r>
       <r>   -5.1429    1.0000 </r>
       <r>   -4.9156    1.0000 </r>
       <r>   -4.5005    1.0000 </r>
       <r>   -4.1285    1.0000 </r>
       <r>   -3.6326    1.0000 </r>
       <r>   -2.9997    1.0000 </r>
       <r>   -2.6417    1.0000 </r>
       <r>   -2.0838    1.0000 </r>
       <r>   -1.2986    1.0000 </r>
       <r>   -0.9777    1.0000 </r>
       <r>   -0.3292    1.0000 </r>
       <r>    0.0712    1.0000 </r>
       <r>    1.0451    1.0000 </r>
       <r>    1.5380    1.0024 </r>
       <r>    2.1783   -0.0055 </r>
       <r>    2.2805   -0.0325 </r>
       <r>    2.7836   -0.0000 </r>
       <r>    3.0031   -0.0000 </r>
       <r>    3.1409   -0.0000 </r>
       <r>    3.4907   -0.0000 </r>
       <r>    3.7959   -0.0000 </r>
       <r>    3.8224   -0.0000 </r>
       <r>    4.2332   -0.0000 </r>
       <r>    4.5991   -0.0000 </r>
       <r>    4.9378   -0.0000 </r>
       <r>    5.0777   -0.0000 </r>
       <r>    5.6365   -0.0000 </r>
       <r>    5.7920   -0.0000 </r>
       <r>    5.9561   -0.0000 </r>
       <r>    6.2133   -0.0000 </r>
       <r>    6.3181   -0.0000 </r>
       <r>    6.5907   -0.0000 </r>
       <r>    7.2159   -0.0000 </r>
       <r>    7.3617   -0.0000 </r>
       <r>    7.4533   -0.0000 </r>
       <r>    7.6948    0.0000 </r>
       <r>    7.9154    0.0000 </r>
       <r>    8.0534    0.0000 </r>
       <r>    8.1208    0.0000 </r>
       <r>    8.2024    0.0000 </r>
       <r>    8.6733    0.0000 </r>
       <r>    8.7327    0.0000 </r>
       <r>    8.9041    0.0000 </r>
       <r>    9.0013    0.0000 </r>
       <r>    9.1497    0.0000 </r>
       <r>    9.4809    0.0000 </r>
       <r>    9.6937    0.0000 </r>
       <r>    9.7256    0.0000 </r>
       <r>    9.9228    0.0000 </r>
       <r>   10.0184    0.0000 </r>
       <r>   10.4089    0.0000 </r>
       <r>   10.4964    0.0000 </r>
       <r>   10.6308    0.0000 </r>
       <r>   10.9063    0.0000 </r>
       <r>   11.1152    0.0000 </r>
       <r>   11.1703    0.0000 </r>
       <r>   11.5016    0.0000 </r>
      </set>
     </set>
    </set>
   </array>
  </eigenvalues>
  <separator name="orbital magnetization" >
   <v name="MAGDIPOLOUT">      0.00000000      0.00000000      0.00000000</v>
  </separator>
  <dos>
   <i name="efermi">      2.00468237 </i>
   <total>
    <array>
     <dimension dim="1">gridpoints</dimension>
     <dimension dim="2">spin</dimension>
     <field>energy</field>
     <field>total</field>
     <field>integrated</field>
     <set>
      <set comment="spin 1">
       <r>   -10.9455     0.0000     0.0000 </r>
       <r>   -10.8637     0.0000     0.0000 </r>
       <r>   -10.7820     0.0000     0.0000 </r>
       <r>   -10.7003     0.0000     0.0000 </r>
       <r>   -10.6186    -0.0000    -0.0000 </r>
       <r>   -10.5368    -0.0000    -0.0000 </r>
       <r>   -10.4551    -0.0000    -0.0000 </r>
       <r>   -10.3734    -0.0000    -0.0000 </r>
       <r>   -10.2917    -0.0000    -0.0000 </r>
       <r>   -10.2099    -0.0000    -0.0000 </r>
       <r>   -10.1282    -0.0000    -0.0000 </r>
       <r>   -10.0465    -0.0000    -0.0000 </r>
       <r>    -9.9648    -0.0000    -0.0000 </r>
       <r>    -9.8831    -0.0000    -0.0000 </r>
       <r>    -9.8013    -0.0000    -0.0000 </r>
       <r>    -9.7196    -0.0000    -0.0000 </r>
       <r>    -9.6379    -0.0000    -0.0000 </r>
       <r>    -9.5562    -0.0000    -0.0000 </r>
       <r>    -9.4744    -0.0003    -0.0000 </r>
       <r>    -9.3927    -0.0018    -0.0002 </r>
       <r>    -9.3110    -0.0077    -0.0008 </r>
       <r>    -9.2293    -0.0208    -0.0025 </r>
       <r>    -9.1475    -0.0272    -0.0047 </r>
       <r>    -9.0658     0.0255    -0.0026 </r>
       <r>    -8.9841     0.1987     0.0136 </r>
       <r>    -8.9024     0.4713     0.0521 </r>
       <r>    -8.8207     0.7211     0.1110 </r>
       <r>    -8.7389     0.8480     0.1803 </r>
       <r>    -8.6572     0.8625     0.2508 </r>
       <r>    -8.5755     0.8395     0.3194 </r>
       <r>    -8.4938     0.8594     0.3897 </r>
       <r>    -8.4120     0.9921     0.4708 </r>
       <r>    -8.3303     1.2500     0.5729 </r>
       <r>    -8.2486     1.5279     0.6978 </r>
       <r>    -8.1669     1.6917     0.8360 </r>
       <r>    -8.0851     1.7390     0.9781 </r>
       <r>    -8.0034     1.7468     1.1209 </r>
       <r>    -7.9217     1.7356     1.2627 </r>
       <r>    -7.8400     1.7061     1.4022 </r>
       <r>    -7.7582     1.6930     1.5405 </r>
       <r>    -7.6765     1.7036     1.6797 </r>
       <r>    -7.5948     1.7054     1.8191 </r>
       <r>    -7.5131     1.7574     1.9627 </r>
       <r>    -7.4314     1.9902     2.1254 </r>
       <r>    -7.3496     2.3458     2.3171 </r>
       <r>    -7.2679     2.5861     2.5284 </r>
       <r>    -7.1862     2.6219     2.7427 </r>
       <r>    -7.1045     2.5774     2.9533 </r>
       <r>    -7.0227     2.5452     3.1613 </r>
       <r>    -6.9410     2.5334     3.3684 </r>
       <r>    -6.8593     2.5785     3.5791 </r>
       <r>    -6.7776     2.6509     3.7957 </r>
       <r>    -6.6958     2.6151     4.0095 </r>
       <r>    -6.6141     2.4935     4.2132 </r>
       <r>    -6.5324     2.4762     4.4156 </r>
       <r>    -6.4507     2.5782     4.6263 </r>
       <r>    -6.3689     2.6725     4.8447 </r>
       <r>    -6.2872     2.8086     5.0742 </r>
       <r>    -6.2055     3.0746     5.3255 </r>
       <r>    -6.1238     3.3143     5.5964 </r>
       <r>    -6.0421     3.3342     5.8688 </r>
       <r>    -5.9603     3.2127     6.1314 </r>
       <r>    -5.8786     3.2007     6.3930 </r>
       <r>    -5.7969     3.3778     6.6690 </r>
       <r>    -5.7152     3.5704     6.9608 </r>
       <r>    -5.6334     3.6197     7.2566 </r>
       <r>    -5.5517     3.5117     7.5436 </r>
       <r>    -5.4700     3.3356     7.8162 </r>
       <r>    -5.3883     3.2699     8.0834 </r>
       <r>    -5.3065     3.3849     8.3601 </r>
       <r>    -5.2248     3.5176     8.6475 </r>
       <r>    -5.1431     3.5302     8.9360 </r>
       <r>    -5.0614     3.4796     9.2204 </r>
       <r>    -4.9796     3.4912     9.5057 </r>
       <r>    -4.8979     3.6402     9.8032 </r>
       <r>    -4.8162     3.8816    10.1204 </r>
       <r>    -4.7345     4.0284    10.4496 </r>
       <r>    -4.6528     3.9880    10.7755 </r>
       <r>    -4.5710     3.9508    11.0984 </r>
       <r>    -4.4893     4.0514    11.4295 </r>
       <r>    -4.4076     4.1443    11.7682 </r>
       <r>    -4.3259     4.1964    12.1111 </r>
       <r>    -4.2441     4.3457    12.4663 </r>
       <r>    -4.1624     4.5094    12.8348 </r>
       <r>    -4.0807     4.5314    13.2051 </r>
       <r>    -3.9990     4.4721    13.5706 </r>
       <r>    -3.9172     4.3757    13.9282 </r>
       <r>    -3.8355     4.1776    14.2696 </r>
       <r>    -3.7538     3.9869    14.5954 </r>
       <r>    -3.6721     4.0409    14.9257 </r>
       <r>    -3.5903     4.2864    15.2760 </r>
       <r>    -3.5086     4.4102    15.6364 </r>
       <r>    -3.4269     4.3871    15.9949 </r>
       <r>    -3.3452     4.4875    16.3616 </r>
       <r>    -3.2635     4.7091    16.7465 </r>
       <r>    -3.1817     4.7970    17.1385 </r>
       <r>    -3.1000     4.6898    17.5218 </r>
       <r>    -3.0183     4.5038    17.8898 </r>
       <r>    -2.9366     4.3841    18.2481 </r>
       <r>    -2.8548     4.5861    18.6229 </r>
       <r>    -2.7731     5.2495    19.0519 </r>
       <r>    -2.6914     5.9397    19.5373 </r>
       <r>    -2.6097     6.0218    20.0295 </r>
       <r>    -2.5279     5.5096    20.4797 </r>
       <r>    -2.4462     4.9471    20.8840 </r>
       <r>    -2.3645     4.7160    21.2694 </r>
       <r>    -2.2828     4.8209    21.6634 </r>
       <r>    -2.2010     5.0765    22.0783 </r>
       <r>    -2.1193     5.3301    22.5139 </r>
       <r>    -2.0376     5.4730    22.9611 </r>
       <r>    -1.9559     5.3989    23.4024 </r>
       <r>    -1.8742     5.1975    23.8271 </r>
       <r>    -1.7924     5.1437    24.2475 </r>
       <r>    -1.7107     5.2581    24.6772 </r>
       <r>    -1.6290     5.2629    25.1073 </r>
       <r>    -1.5473     5.1135    25.5252 </r>
       <r>    -1.4655     5.1051    25.9424 </r>
       <r>    -1.3838     5.4235    26.3856 </r>
       <r>    -1.3021     5.9544    26.8722 </r>
       <r>    -1.2204     6.3986    27.3951 </r>
       <r>    -1.1386     6.4766    27.9244 </r>
       <r>    -1.0569     6.2582    28.4359 </r>
       <r>    -0.9752     6.1063    28.9349 </r>
       <r>    -0.8935     6.1428    29.4369 </r>
       <r>    -0.8117     6.1477    29.9393 </r>
       <r>    -0.7300     6.0488    30.4337 </r>
       <r>    -0.6483     6.0417    30.9274 </r>
       <r>    -0.5666     6.1589    31.4307 </r>
       <r>    -0.4849     6.2319    31.9400 </r>
       <r>    -0.4031     6.2650    32.4520 </r>
       <r>    -0.3214     6.3491    32.9709 </r>
       <r>    -0.2397     6.3915    33.4932 </r>
       <r>    -0.1580     6.2451    34.0036 </r>
       <r>    -0.0762     5.8577    34.4823 </r>
       <r>     0.0055     5.3839    34.9223 </r>
       <r>     0.0872     5.2817    35.3539 </r>
       <r>     0.1689     5.8550    35.8324 </r>
       <r>     0.2507     6.6762    36.3780 </r>
       <r>     0.3324     6.9677    36.9475 </r>
       <r>     0.4141     6.5602    37.4836 </r>
       <r>     0.4958     6.0625    37.9790 </r>
       <r>     0.5776     6.0487    38.4733 </r>
       <r>     0.6593     6.4049    38.9968 </r>
       <r>     0.7410     6.6372    39.5392 </r>
       <r>     0.8227     6.6011    40.0787 </r>
       <r>     0.9044     6.5967    40.6178 </r>
       <r>     0.9862     6.8201    41.1751 </r>
       <r>     1.0679     7.1069    41.7559 </r>
       <r>     1.1496     7.2018    42.3445 </r>
       <r>     1.2313     7.0442    42.9202 </r>
       <r>     1.3131     6.7858    43.4747 </r>
       <r>     1.3948     6.5844    44.0128 </r>
       <r>     1.4765     6.5179    44.5455 </r>
       <r>     1.5582     6.6512    45.0890 </r>
       <r>     1.6400     6.8712    45.6506 </r>
       <r>     1.7217     6.8518    46.2105 </r>
       <r>     1.8034     6.4932    46.7412 </r>
       <r>     1.8851     6.1359    47.2426 </r>
       <r>     1.9669     6.2158    47.7506 </r>
       <r>     2.0486     6.7740    48.3042 </r>
       <r>     2.1303     7.3225    48.9026 </r>
       <r>     2.2120     7.4142    49.5085 </r>
       <r>     2.2937     7.2047    50.0973 </r>
       <r>     2.3755     7.0889    50.6766 </r>
       <r>     2.4572     7.1301    51.2593 </r>
       <r>     2.5389     7.1984    51.8476 </r>
       <r>     2.6206     7.2762    52.4423 </r>
       <r>     2.7024     7.3745    53.0449 </r>
       <r>     2.7841     7.3993    53.6496 </r>
       <r>     2.8658     7.2775    54.2444 </r>
       <r>     2.9475     7.1263    54.8268 </r>
       <r>     3.0293     7.0949    55.4066 </r>
       <r>     3.1110     7.1569    55.9915 </r>
       <r>     3.1927     7.3103    56.5889 </r>
       <r>     3.2744     7.6828    57.2168 </r>
       <r>     3.3561     8.2411    57.8902 </r>
       <r>     3.4379     8.7352    58.6041 </r>
       <r>     3.5196     8.8985    59.3313 </r>
       <r>     3.6013     8.4900    60.0252 </r>
       <r>     3.6830     7.5555    60.6426 </r>
       <r>     3.7648     6.7849    61.1971 </r>
       <r>     3.8465     6.9046    61.7614 </r>
       <r>     3.9282     7.6797    62.3890 </r>
       <r>     4.0099     8.2284    63.0614 </r>
       <r>     4.0917     8.1360    63.7263 </r>
       <r>     4.1734     7.6920    64.3550 </r>
       <r>     4.2551     7.3126    64.9526 </r>
       <r>     4.3368     7.1287    65.5352 </r>
       <r>     4.4186     7.0874    66.1144 </r>
       <r>     4.5003     7.2661    66.7082 </r>
       <r>     4.5820     7.8302    67.3481 </r>
       <r>     4.6637     8.6383    68.0540 </r>
       <r>     4.7454     9.2607    68.8109 </r>
       <r>     4.8272     9.4498    69.5831 </r>
       <r>     4.9089     9.2842    70.3419 </r>
       <r>     4.9906     8.9846    71.0761 </r>
       <r>     5.0723     8.7988    71.7952 </r>
       <r>     5.1541     8.7743    72.5123 </r>
       <r>     5.2358     8.6955    73.2229 </r>
       <r>     5.3175     8.5079    73.9182 </r>
       <r>     5.3992     8.4198    74.6063 </r>
       <r>     5.4810     8.5854    75.3079 </r>
       <r>     5.5627     8.9868    76.0423 </r>
       <r>     5.6444     9.3625    76.8075 </r>
       <r>     5.7261     9.3510    77.5717 </r>
       <r>     5.8079     9.0120    78.3082 </r>
       <r>     5.8896     8.8675    79.0328 </r>
       <r>     5.9713     9.1857    79.7835 </r>
       <r>     6.0530     9.6333    80.5708 </r>
       <r>     6.1347     9.8745    81.3778 </r>
       <r>     6.2165    10.0659    82.2004 </r>
       <r>     6.2982    10.4979    83.0583 </r>
       <r>     6.3799    11.0228    83.9591 </r>
       <r>     6.4616    11.1354    84.8692 </r>
       <r>     6.5434    10.7484    85.7476 </r>
       <r>     6.6251    10.4232    86.5994 </r>
       <r>     6.7068    10.4737    87.4553 </r>
       <r>     6.7885    10.5741    88.3195 </r>
       <r>     6.8703    10.5074    89.1782 </r>
       <r>     6.9520    10.4313    90.0307 </r>
       <r>     7.0337    10.4812    90.8872 </r>
       <r>     7.1154    10.8106    91.7707 </r>
       <r>     7.1972    11.5188    92.7121 </r>
       <r>     7.2789    12.2038    93.7094 </r>
       <r>     7.3606    12.3559    94.7192 </r>
       <r>     7.4423    12.1363    95.7110 </r>
       <r>     7.5240    11.9549    96.6880 </r>
       <r>     7.6058    11.7559    97.6487 </r>
       <r>     7.6875    11.4588    98.5852 </r>
       <r>     7.7692    11.3648    99.5140 </r>
       <r>     7.8509    11.6055   100.4624 </r>
       <r>     7.9327    11.8964   101.4346 </r>
       <r>     8.0144    12.0297   102.4177 </r>
       <r>     8.0961    12.0191   103.4000 </r>
       <r>     8.1778    11.8625   104.3694 </r>
       <r>     8.2596    11.6853   105.3244 </r>
       <r>     8.3413    11.7265   106.2827 </r>
       <r>     8.4230    11.8621   107.2521 </r>
       <r>     8.5047    11.7817   108.2150 </r>
       <r>     8.5865    11.6331   109.1657 </r>
       <r>     8.6682    11.7991   110.1299 </r>
       <r>     8.7499    12.2439   111.1305 </r>
       <r>     8.8316    12.6064   112.1608 </r>
       <r>     8.9133    12.6924   113.1980 </r>
       <r>     8.9951    12.5870   114.2267 </r>
       <r>     9.0768    12.4301   115.2425 </r>
       <r>     9.1585    12.1914   116.2389 </r>
       <r>     9.2402    11.7738   117.2010 </r>
       <r>     9.3220    11.3341   118.1273 </r>
       <r>     9.4037    11.1263   119.0366 </r>
       <r>     9.4854    10.9942   119.9351 </r>
       <r>     9.5671    10.5246   120.7952 </r>
       <r>     9.6489     9.6141   121.5809 </r>
       <r>     9.7306     8.5233   122.2774 </r>
       <r>     9.8123     7.6249   122.9006 </r>
       <r>     9.8940     7.1494   123.4848 </r>
       <r>     9.9758     6.9460   124.0525 </r>
       <r>    10.0575     6.6116   124.5928 </r>
       <r>    10.1392     5.9032   125.0752 </r>
       <r>    10.2209     4.9353   125.4786 </r>
       <r>    10.3026     4.0441   125.8091 </r>
       <r>    10.3844     3.4458   126.0907 </r>
       <r>    10.4661     3.0636   126.3410 </r>
       <r>    10.5478     2.7615   126.5667 </r>
       <r>    10.6295     2.5183   126.7725 </r>
       <r>    10.7113     2.3194   126.9621 </r>
       <r>    10.7930     2.1121   127.1347 </r>
       <r>    10.8747     1.8561   127.2864 </r>
       <r>    10.9564     1.5653   127.4143 </r>
       <r>    11.0382     1.3282   127.5228 </r>
       <r>    11.1199     1.2070   127.6215 </r>
       <r>    11.2016     1.1469   127.7152 </r>
       <r>    11.2833     1.0628   127.8020 </r>
       <r>    11.3651     0.9253   127.8777 </r>
       <r>    11.4468     0.7298   127.9373 </r>
       <r>    11.5285     0.4863   127.9771 </r>
       <r>    11.6102     0.2459   127.9972 </r>
       <r>    11.6919     0.0744   128.0032 </r>
       <r>    11.7737    -0.0045   128.0029 </r>
       <r>    11.8554    -0.0191   128.0013 </r>
       <r>    11.9371    -0.0112   128.0004 </r>
       <r>    12.0188    -0.0038   128.0001 </r>
       <r>    12.1006    -0.0008   128.0000 </r>
       <r>    12.1823    -0.0001   128.0000 </r>
       <r>    12.2640    -0.0000   128.0000 </r>
       <r>    12.3457    -0.0000   128.0000 </r>
       <r>    12.4275    -0.0000   128.0000 </r>
       <r>    12.5092    -0.0000   128.0000 </r>
       <r>    12.5909    -0.0000   128.0000 </r>
       <r>    12.6726    -0.0000   128.0000 </r>
       <r>    12.7544    -0.0000   128.0000 </r>
       <r>    12.8361    -0.0000   128.0000 </r>
       <r>    12.9178     0.0000   128.0000 </r>
       <r>    12.9995     0.0000   128.0000 </r>
       <r>    13.0812     0.0000   128.0000 </r>
       <r>    13.1630     0.0000   128.0000 </r>
       <r>    13.2447     0.0000   128.0000 </r>
       <r>    13.3264     0.0000   128.0000 </r>
       <r>    13.4081     0.0000   128.0000 </r>
       <r>    13.4899     0.0000   128.0000 </r>
       <r>    13.5716     0.0000   128.0000 </r>
      </set>
     </set>
    </array>
   </total>
  </dos>
 </calculation>
 <structure name="finalpos" >
  <crystal>
   <varray name="basis" >
    <v>       2.85595457       0.00000000       0.00000000 </v>
    <v>      -0.00000000       6.96846383      -0.61593100 </v>
    <v>       0.01000000       0.00000000      26.48503317 </v>
   </varray>
   <i name="volume">    527.09496419 </i>
   <varray name="rec_basis" >
    <v>       0.35014563      -0.00001169      -0.00013221 </v>
    <v>       0.00000000       0.14350365       0.00000000 </v>
    <v>      -0.00000000       0.00333729       0.03775717 </v>
   </varray>
  </crystal>
  <varray name="positions" >
   <v>       0.00000000       0.67187500       0.89062500 </v>
   <v>       0.00000000       0.35937500       0.95312500 </v>
   <v>       0.50000000       0.01562500       0.92187500 </v>
   <v>       0.50000000       0.70312500       0.98437500 </v>
   <v>       0.00000000       0.29687500       0.76562500 </v>
   <v>       0.00000000       0.98437500       0.82812500 </v>
   <v>       0.50000000       0.64062500       0.79687500 </v>
   <v>       0.50000000       0.32812500       0.85937500 </v>
   <v>       0.00000000       0.92187500       0.64062500 </v>
   <v>       0.00000000       0.60937500       0.70312500 </v>
   <v>       0.50000000       0.26562500       0.67187500 </v>
   <v>       0.50000000       0.95312500       0.73437500 </v>
   <v>       0.00000000       0.54687500       0.51562500 </v>
   <v>       0.00000000       0.23437500       0.57812500 </v>
   <v>       0.50000000       0.89062500       0.54687500 </v>
   <v>       0.50000000       0.57812500       0.60937500 </v>
  </varray>
 </structure>
</modeling>
