ITEM: TIMESTEP
0
ITEM: NUMBER OF ATOMS
4
ITEM: BOX BOUNDS xy xz yz pp pp pp
0.0000000000000000e+00 3.8240611992000000e+00 -0.0000000000000000e+00
0.0000000000000000e+00 3.8240611992000000e+00 -0.0000000000000000e+00
0.0000000000000000e+00 3.8240611992000000e+00 -0.0000000000000000e+00
ITEM: ATOMS id type xs ys zs fx fy fz
1 1 0 0 0 -1.11022e-16 1.07553e-16 -8.54182e-17
2 1 0 0.5 0.5 5.55112e-17 4.45743e-17 -7.40554e-17
3 1 0.5 0.5 0 5.55112e-17 7.8049e-17 -3.82627e-17
4 1 0.5 0 0.5 1.11022e-16 5.19333e-17 -1.29684e-16
ITEM: TIMESTEP
1
ITEM: NUMBER OF ATOMS
4
ITEM: BOX BOUNDS xy xz yz pp pp pp
0.0000000000000000e+00 3.8240611992000000e+00 -0.0000000000000000e+00
0.0000000000000000e+00 3.8240611992000000e+00 -0.0000000000000000e+00
0.0000000000000000e+00 3.8240611992000000e+00 -0.0000000000000000e+00
ITEM: ATOMS id type xs ys zs fx fy fz
1 1 0 0 0 -1.11022e-16 1.07553e-16 -8.54182e-17
2 1 0 0.5 0.5 5.55112e-17 4.45743e-17 -7.40554e-17
3 1 0.5 0.5 0 5.55112e-17 7.8049e-17 -3.82627e-17
4 1 0.5 0 0.5 1.11022e-16 5.19333e-17 -1.29684e-16
