
4 atoms
1 atom types
   0.0000000000    4.0319999997 xlo xhi
   0.0000000000    4.0311935190 ylo yhi
   0.0000000000    4.0319999997 zlo zhi
  -0.0806400000    0.0000000000    0.0000000000 xy xz yz

Atoms # atomic

     1      1    0.0000000000    0.0000000000    0.0000000000
     2      1   -0.0403200000    2.0155967595    2.0159999998
     3      1    1.9756799998    2.0155967595    0.0000000000
     4      1    2.0159999998    0.0000000000    2.0159999998
