ITEM: TIMESTEP
0
ITEM: NUMBER OF ATOMS
4
ITEM: BOX BOUNDS xy xz yz pp pp pp
-8.0640000000000003e-02 4.0319999997000000e+00 -8.0640000000000003e-02
0.0000000000000000e+00 4.0311935190000003e+00 0.0000000000000000e+00
0.0000000000000000e+00 4.0319999997000000e+00 0.0000000000000000e+00
ITEM: ATOMS id type xs ys zs fx fy fz
1 1 0 0 0 -2.31657e-10 -1.72258e-11 -2.31336e-10
3 1 0.5 0.5 0 2.31657e-10 1.72258e-11 -2.31336e-10
2 1 5.20417e-18 0.5 0.5 -2.31658e-10 -1.72262e-11 2.31336e-10
4 1 0.5 0 0.5 2.31658e-10 1.72262e-11 2.31336e-10
ITEM: TIMESTEP
1
ITEM: NUMBER OF ATOMS
4
ITEM: BOX BOUNDS xy xz yz pp pp pp
-8.0640000000000003e-02 4.0319999997000000e+00 -8.0640000000000003e-02
0.0000000000000000e+00 4.0311935190000003e+00 0.0000000000000000e+00
0.0000000000000000e+00 4.0319999997000000e+00 0.0000000000000000e+00
ITEM: ATOMS id type xs ys zs fx fy fz
4 1 0.5 4.59594e-13 0.5 -4.88401e-13 -8.2177e-12 1.10561e-12
3 1 0.5 0.5 1 -4.88304e-13 -8.21694e-12 -1.10529e-12
2 1 1 0.5 0.5 4.91038e-13 8.21779e-12 1.10525e-12
1 1 1 1 1 4.8566e-13 8.21693e-12 -1.10563e-12
