
4 atoms
1 atom types
   0.0000000000    4.2898845785 xlo xhi
   0.0000000000    4.2898845785 ylo yhi
   0.0000000000    4.2898845785 zlo zhi
  -0.0000000000   -0.0000000000   -0.0000000000 xy xz yz

Atoms # atomic

     1      1    0.0000000000    0.0000000000    0.0000000000
     2      1    0.0000000000    2.1449422893    2.1449422893
     3      1    2.1449422893    2.1449422893    0.0000000000
     4      1    2.1449422893    0.0000000000    2.1449422893
