
4 atoms
1 atom types
   0.0000000000    3.9102309330 xlo xhi
   0.0000000000    3.9102309330 ylo yhi
   0.0000000000    3.9102309330 zlo zhi
   0.0000000000    0.0000000000    0.0000000000 xy xz yz

Atoms # atomic

     1      1    0.0000000000    0.0000000000    0.0000000000
     2      1    0.0000000000    1.9551154665    1.9551154665
     3      1    1.9551154665    1.9551154665    0.0000000000
     4      1    1.9551154665    0.0000000000    1.9551154665
