 running   14 mpi-ranks, with    2 threads/rank, on    1 nodes
 distrk:  each k-point on   14 cores,    1 groups
 distr:  one band on    1 cores,   14 groups
 vasp.6.4.2 20Jul23 (build Apr 22 2024 22:35:45) complex                         
 POSCAR found type information on POSCAR Al
 POSCAR found :  1 types and       4 ions
 scaLAPACK will be used
 -----------------------------------------------------------------------------
|                                                                             |
|               ----> ADVICE to this user running VASP <----                  |
|                                                                             |
|     You have a (more or less) 'small supercell' and for smaller cells       |
|     it is recommended to use the reciprocal-space projection scheme!        |
|     The real-space optimization is not efficient for small cells and it     |
|     is also less accurate ...                                               |
|     Therefore, set LREAL=.FALSE. in the INCAR file.                         |
|                                                                             |
 -----------------------------------------------------------------------------

 LDA part: xc-table for Pade appr. of Perdew
 POSCAR, INCAR and KPOINTS ok, starting setup
 FFT: planning ... GRIDC
 FFT: planning ... GRID_SOFT
 FFT: planning ... GRID
 WAVECAR not read
 entering main loop
       N       E                     dE             d eps       ncg     rms          rms(c)
DAV:   1    -0.243367732333E+01   -0.24337E+01   -0.38232E+03 30926   0.522E+02
DAV:   2    -0.150050580649E+02   -0.12571E+02   -0.12210E+02 45360   0.477E+01
DAV:   3    -0.150737799057E+02   -0.68722E-01   -0.68633E-01 40054   0.482E+00
DAV:   4    -0.150739395374E+02   -0.15963E-03   -0.15962E-03 51184   0.228E-01
DAV:   5    -0.150739396476E+02   -0.11027E-06   -0.11034E-06 41202   0.419E-03    0.261E+00
RMM:   6    -0.150218635595E+02    0.52076E-01   -0.53728E-03 30800   0.426E-01    0.153E+00
RMM:   7    -0.149837680716E+02    0.38095E-01   -0.16426E-02 30800   0.713E-01    0.225E-01
RMM:   8    -0.149837383448E+02    0.29727E-04   -0.58012E-04 30800   0.160E-01    0.279E-02
RMM:   9    -0.149837440479E+02   -0.57031E-05   -0.98931E-05 30800   0.690E-02    0.232E-02
RMM:  10    -0.149837450200E+02   -0.97210E-06   -0.22200E-05 30800   0.332E-02    0.221E-02
RMM:  11    -0.149837405940E+02    0.44260E-05   -0.43780E-06 30314   0.128E-02    0.536E-03
RMM:  12    -0.149837404953E+02    0.98614E-07   -0.11727E-06 22903   0.812E-03
   1 F= -.14983740E+02 E0= -.14984279E+02  d E =-.149837E+02
 curvature:   0.00 expect dE= 0.000E+00 dE for cont linesearch  0.000E+00
 trial: gam= 0.00000 g(F)=  0.212E-62 g(S)=  0.000E+00 ort = 0.000E+00 (trialstep = 0.100E+01)
 search vector abs. value=  0.100E-09
 reached required accuracy - stopping structural energy minimisation
