ITEM: TIMESTEP
0
ITEM: NUMBER OF ATOMS
4
ITEM: BOX BOUNDS xy xz yz pp pp pp
0.0000000000000000e+00 3.5844115831000001e+00 -0.0000000000000000e+00
0.0000000000000000e+00 3.5844115831000001e+00 -0.0000000000000000e+00
0.0000000000000000e+00 3.5844115831000001e+00 -0.0000000000000000e+00
ITEM: ATOMS id type xs ys zs fx fy fz
1 1 0 0 0 7.60526e-10 7.60526e-10 7.60526e-10
2 1 0 0.5 0.5 7.60527e-10 -7.60526e-10 -7.60526e-10
3 1 0.5 0.5 0 -7.60527e-10 -7.60526e-10 7.60526e-10
4 1 0.5 0 0.5 -7.60526e-10 7.60526e-10 -7.60526e-10
ITEM: TIMESTEP
1
ITEM: NUMBER OF ATOMS
4
ITEM: BOX BOUNDS xy xz yz pp pp pp
0.0000000000000000e+00 3.5844115831000001e+00 -0.0000000000000000e+00
0.0000000000000000e+00 3.5844115831000001e+00 -0.0000000000000000e+00
0.0000000000000000e+00 3.5844115831000001e+00 -0.0000000000000000e+00
ITEM: ATOMS id type xs ys zs fx fy fz
1 1 6.97466e-12 6.97466e-12 6.97466e-12 0 4.23327e-16 1.37243e-16
2 1 6.97466e-12 0.5 0.5 0 -9.34582e-17 -9.19979e-17
3 1 0.5 0.5 6.97466e-12 -6.66134e-16 -5.56684e-16 2.44047e-16
4 1 0.5 6.97466e-12 0.5 2.22045e-16 1.21376e-16 -2.92145e-16
