ITEM: TIMESTEP
0
ITEM: NUMBER OF ATOMS
4
ITEM: BOX BOUNDS xy xz yz pp pp pp
0.0000000000000000e+00 4.4004961041000001e+00 0.0000000000000000e+00
0.0000000000000000e+00 4.4004961041000001e+00 -0.0000000000000000e+00
0.0000000000000000e+00 4.4004961041000001e+00 -0.0000000000000000e+00
ITEM: ATOMS id type xs ys zs fx fy fz
1 1 0 0 0 -5.05654e-11 -5.05655e-11 -5.05652e-11
2 1 0 0.5 0.5 -5.05655e-11 5.05655e-11 5.05656e-11
3 1 0.5 0.5 0 5.05656e-11 5.05655e-11 -5.05653e-11
4 1 0.5 0 0.5 5.05656e-11 -5.05657e-11 5.05655e-11
ITEM: TIMESTEP
1
ITEM: NUMBER OF ATOMS
4
ITEM: BOX BOUNDS xy xz yz pp pp pp
0.0000000000000000e+00 4.4004961041000001e+00 0.0000000000000000e+00
0.0000000000000000e+00 4.4004961041000001e+00 -0.0000000000000000e+00
0.0000000000000000e+00 4.4004961041000001e+00 -0.0000000000000000e+00
ITEM: ATOMS id type xs ys zs fx fy fz
4 1 0.5 1 0.5 -3.88578e-16 3.88578e-16 9.71445e-16
3 1 0.5 0.5 1 -4.44089e-16 -1.94289e-16 -4.44089e-16
2 1 1 0.5 0.5 4.44089e-16 -3.60822e-16 9.71445e-16
1 1 1 1 1 4.996e-16 2.22045e-16 -7.21645e-16
