ITEM: TIMESTEP
0
ITEM: NUMBER OF ATOMS
4
ITEM: BOX BOUNDS xy xz yz pp pp pp
0.0000000000000000e+00 4.0499988870000001e+00 0.0000000000000000e+00
0.0000000000000000e+00 4.0902983758999998e+00 0.0000000000000000e+00
0.0000000000000000e+00 4.0499988870000001e+00 0.0000000000000000e+00
ITEM: ATOMS id type xs ys zs fx fy fz
1 1 0 0 0 -8.32667e-17 7.27481e-10 1.81279e-16
4 1 0.5 0 0.5 2.77556e-17 7.27481e-10 2.73219e-17
3 1 0.5 0.5 0 5.55112e-17 -7.27481e-10 -2.09034e-16
2 1 0 0.5 0.5 0 -7.27481e-10 4.33681e-19
ITEM: TIMESTEP
1
ITEM: NUMBER OF ATOMS
4
ITEM: BOX BOUNDS xy xz yz pp pp pp
0.0000000000000000e+00 4.0499988870000001e+00 0.0000000000000000e+00
0.0000000000000000e+00 4.0902983758999998e+00 0.0000000000000000e+00
0.0000000000000000e+00 4.0499988870000001e+00 0.0000000000000000e+00
ITEM: ATOMS id type xs ys zs fx fy fz
1 1 0 6.11211e-12 1.53821e-18 1.38778e-17 8.47412e-15 1.18937e-15
4 1 0.5 6.11211e-12 0.5 0 8.43596e-15 1.44004e-15
3 1 0.5 0.5 0 4.16334e-17 -8.56996e-15 -1.35308e-15
2 1 0 0.5 0.5 -5.55112e-17 -8.33535e-15 -1.27285e-15
