
4 atoms
1 atom types
   0.0000000000    4.0369359481 xlo xhi
   0.0000000000    4.0369359481 ylo yhi
   0.0000000000    4.0361284802 zlo zhi
   0.0000000000    0.0000000000    0.0807387190 xy xz yz

Atoms # atomic

     1      1    0.0000000000    0.0000000000    0.0000000000
     2      1    0.0000000000    2.0588373336    2.0180642401
     3      1    2.0184679741    2.0184679741    0.0000000000
     4      1    2.0184679741    0.0403693595    2.0180642401
