 running   14 mpi-ranks, with    2 threads/rank, on    1 nodes
 distrk:  each k-point on   14 cores,    1 groups
 distr:  one band on    1 cores,   14 groups
 vasp.6.4.2 20Jul23 (build Apr 22 2024 22:35:45) complex                         
 POSCAR found type information on POSCAR Al
 POSCAR found :  1 types and       4 ions
 scaLAPACK will be used
 -----------------------------------------------------------------------------
|                                                                             |
|               ----> ADVICE to this user running VASP <----                  |
|                                                                             |
|     You have a (more or less) 'small supercell' and for smaller cells       |
|     it is recommended to use the reciprocal-space projection scheme!        |
|     The real-space optimization is not efficient for small cells and it     |
|     is also less accurate ...                                               |
|     Therefore, set LREAL=.FALSE. in the INCAR file.                         |
|                                                                             |
 -----------------------------------------------------------------------------

 LDA part: xc-table for Pade appr. of Perdew
 POSCAR, INCAR and KPOINTS ok, starting setup
 FFT: planning ... GRIDC
 FFT: planning ... GRID_SOFT
 FFT: planning ... GRID
 WAVECAR not read
 entering main loop
       N       E                     dE             d eps       ncg     rms          rms(c)
DAV:   1    -0.233429217360E+01   -0.23343E+01   -0.38161E+03 30926   0.521E+02
DAV:   2    -0.150030968332E+02   -0.12669E+02   -0.12324E+02 45374   0.480E+01
DAV:   3    -0.150737725497E+02   -0.70676E-01   -0.70278E-01 40026   0.486E+00
DAV:   4    -0.150739395286E+02   -0.16698E-03   -0.16697E-03 51310   0.235E-01
DAV:   5    -0.150739396478E+02   -0.11919E-06   -0.11968E-06 40824   0.413E-03    0.261E+00
RMM:   6    -0.150218635604E+02    0.52076E-01   -0.53734E-03 30800   0.426E-01    0.153E+00
RMM:   7    -0.149837680657E+02    0.38095E-01   -0.16428E-02 30800   0.713E-01    0.225E-01
RMM:   8    -0.149837383425E+02    0.29723E-04   -0.58018E-04 30800   0.160E-01    0.279E-02
RMM:   9    -0.149837440467E+02   -0.57043E-05   -0.98938E-05 30800   0.690E-02    0.232E-02
RMM:  10    -0.149837450203E+02   -0.97353E-06   -0.22200E-05 30800   0.332E-02    0.221E-02
RMM:  11    -0.149837405929E+02    0.44273E-05   -0.43784E-06 30311   0.128E-02    0.535E-03
RMM:  12    -0.149837404953E+02    0.97625E-07   -0.11727E-06 22895   0.812E-03
   1 F= -.14983740E+02 E0= -.14984279E+02  d E =-.149837E+02
 curvature:   0.00 expect dE= 0.000E+00 dE for cont linesearch  0.000E+00
 trial: gam= 0.00000 g(F)=  0.200E-61 g(S)=  0.000E+00 ort = 0.000E+00 (trialstep = 0.100E+01)
 search vector abs. value=  0.100E-09
 reached required accuracy - stopping structural energy minimisation
