ITEM: TIMESTEP
0
ITEM: NUMBER OF ATOMS
4
ITEM: BOX BOUNDS xy xz yz pp pp pp
0.0000000000000000e+00 3.6633151148000000e+00 0.0000000000000000e+00
0.0000000000000000e+00 3.6633151148000000e+00 -0.0000000000000000e+00
0.0000000000000000e+00 3.6633151148000000e+00 -0.0000000000000000e+00
ITEM: ATOMS id type xs ys zs fx fy fz
1 1 0 0 0 0 1.11022e-16 -8.32667e-16
4 1 0.5 0 0.5 -6.93889e-18 -1.14492e-16 -1.27502e-15
3 1 0.5 0.5 0 -6.93889e-18 -1.16226e-16 -8.29198e-16
2 1 0 0.5 0.5 0 -1.11022e-16 -1.05471e-15
ITEM: TIMESTEP
1
ITEM: NUMBER OF ATOMS
4
ITEM: BOX BOUNDS xy xz yz pp pp pp
0.0000000000000000e+00 3.6633151148000000e+00 0.0000000000000000e+00
0.0000000000000000e+00 3.6633151148000000e+00 -0.0000000000000000e+00
0.0000000000000000e+00 3.6633151148000000e+00 -0.0000000000000000e+00
ITEM: ATOMS id type xs ys zs fx fy fz
1 1 0 0 0 0 1.11022e-16 -8.32667e-16
4 1 0.5 0 0.5 -6.93889e-18 -1.14492e-16 -1.27502e-15
3 1 0.5 0.5 0 -6.93889e-18 -1.16226e-16 -8.29198e-16
2 1 0 0.5 0.5 0 -1.11022e-16 -1.05471e-15
