
4 atoms
1 atom types
   0.0000000000    4.3433403347 xlo xhi
   0.0000000000    4.3433403347 ylo yhi
   0.0000000000    4.3433403347 zlo zhi
   0.0000000000   -0.0000000000   -0.0000000000 xy xz yz

Atoms # atomic

     1      1    0.0000000000    0.0000000000    0.0000000000
     2      1    0.0000000000    2.1716701673    2.1716701673
     3      1    2.1716701673    2.1716701673    0.0000000000
     4      1    2.1716701673    0.0000000000    2.1716701673
