ITEM: TIMESTEP
0
ITEM: NUMBER OF ATOMS
4
ITEM: BOX BOUNDS xy xz yz pp pp pp
0.0000000000000000e+00 4.3433403346999997e+00 0.0000000000000000e+00
0.0000000000000000e+00 4.3433403346999997e+00 -0.0000000000000000e+00
0.0000000000000000e+00 4.3433403346999997e+00 -0.0000000000000000e+00
ITEM: ATOMS id type xs ys zs fx fy fz
1 1 0 0 0 -6.96724e-11 -6.96724e-11 -6.96726e-11
3 1 0.5 0.5 0 6.96724e-11 6.96725e-11 -6.96723e-11
2 1 0 0.5 0.5 -6.96725e-11 6.96724e-11 6.96724e-11
4 1 0.5 0 0.5 6.96724e-11 -6.96724e-11 6.96725e-11
ITEM: TIMESTEP
1
ITEM: NUMBER OF ATOMS
4
ITEM: BOX BOUNDS xy xz yz pp pp pp
0.0000000000000000e+00 4.3433403346999997e+00 0.0000000000000000e+00
0.0000000000000000e+00 4.3433403346999997e+00 -0.0000000000000000e+00
0.0000000000000000e+00 4.3433403346999997e+00 -0.0000000000000000e+00
ITEM: ATOMS id type xs ys zs fx fy fz
2 1 1 0.5 0.5 5.6205e-16 -6.27103e-16 -7.56339e-16
3 1 0.5 0.5 1 -6.10623e-16 -6.245e-16 6.10623e-16
4 1 0.5 1 0.5 -5.55112e-16 6.245e-16 -8.32667e-16
1 1 1 1 1 6.17562e-16 5.99347e-16 6.10623e-16
