ITEM: TIMESTEP
0
ITEM: NUMBER OF ATOMS
4
ITEM: BOX BOUNDS xy xz yz pp pp pp
0.0000000000000000e+00 4.0389296932000001e+00 -0.0000000000000000e+00
0.0000000000000000e+00 4.0389296932000001e+00 0.0000000000000000e+00
0.0000000000000000e+00 4.0389296932000001e+00 0.0000000000000000e+00
ITEM: ATOMS id type xs ys zs fx fy fz
1 1 0 0 0 -1.38778e-17 -3.8584e-17 -8.88031e-18
2 1 0 0.5 0.5 1.38778e-17 2.75252e-17 7.05715e-18
4 1 0.5 0.5 0 2.77556e-17 6.60008e-18 -9.04259e-18
3 1 0.5 0 0.5 1.38778e-17 -4.55229e-17 2.0935e-17
ITEM: TIMESTEP
6
ITEM: NUMBER OF ATOMS
4
ITEM: BOX BOUNDS xy xz yz pp pp pp
9.9687254680291219e-04 4.0379328206531966e+00 -0.0000000000000000e+00
9.9687254680291219e-04 4.0379328206531966e+00 0.0000000000000000e+00
9.9687254680291219e-04 4.0379328206531966e+00 0.0000000000000000e+00
ITEM: ATOMS id type xs ys zs fx fy fz
1 1 0 0 5.37141e-20 -1.38778e-17 1.34712e-16 -5.14475e-17
2 1 0 0.5 0.5 2.77556e-17 -2.03762e-16 -1.1809e-16
4 1 0.5 0.5 0 -2.77556e-17 -1.23314e-16 1.46916e-18
3 1 0.5 5.37141e-20 0.5 1.38778e-17 1.28749e-16 1.23081e-16
ITEM: TIMESTEP
7
ITEM: NUMBER OF ATOMS
4
ITEM: BOX BOUNDS xy xz yz pp pp pp
9.9687254688440624e-04 4.0379328206531149e+00 -0.0000000000000000e+00
9.9687254688442034e-04 4.0379328206531149e+00 0.0000000000000000e+00
9.9687254688448647e-04 4.0379328206531149e+00 0.0000000000000000e+00
ITEM: ATOMS id type xs ys zs fx fy fz
1 1 0 3.22285e-19 0 1.66533e-16 5.56738e-17 -1.26436e-16
2 1 5.37141e-20 0.5 0.5 1.249e-16 -1.35254e-16 1.33133e-16
4 1 0.5 0.5 0 -1.11022e-16 -6.0878e-17 -1.21267e-16
3 1 0.5 3.75999e-19 0.5 -1.249e-16 1.01752e-16 1.06236e-16
ITEM: TIMESTEP
8
ITEM: NUMBER OF ATOMS
4
ITEM: BOX BOUNDS xy xz yz pp pp pp
9.9687254688344304e-04 4.0379328206531158e+00 -2.8841128169636631e-18
9.9687254688346797e-04 4.0379328206531158e+00 -3.2497045824942692e-19
9.9687254688358940e-04 4.0379328206531158e+00 -2.3289549507875600e-18
ITEM: ATOMS id type xs ys zs fx fy fz
1 1 4.29713e-19 4.83427e-19 0 1.38778e-17 1.35796e-17 -5.9171e-17
2 1 3.97465e-19 0.5 0.5 1.38778e-17 2.01255e-17 3.03539e-17
4 1 0.5 0.5 0 -2.77556e-17 -6.16233e-17 4.40538e-17
3 1 0.5 6.64455e-19 0.5 -6.93889e-17 6.63667e-17 -5.83459e-17
