
4 atoms
1 atom types
   0.0000000000    4.0389296932 xlo xhi
   0.0000000000    4.0389296932 ylo yhi
   0.0000000000    4.0389296932 zlo zhi
  -0.0000000000    0.0000000000    0.0000000000 xy xz yz

Atoms # atomic

     1      1    0.0000000000    0.0000000000    0.0000000000
     2      1    0.0000000000    2.0194648466    2.0194648466
     3      1    2.0194648466    0.0000000000    2.0194648466
     4      1    2.0194648466    2.0194648466   -0.0000000000
