ITEM: TIMESTEP
0
ITEM: NUMBER OF ATOMS
4
ITEM: BOX BOUNDS xy xz yz pp pp pp
0.0000000000000000e+00 4.0389296932000001e+00 -0.0000000000000000e+00
0.0000000000000000e+00 4.0389296932000001e+00 0.0000000000000000e+00
0.0000000000000000e+00 4.0389296932000001e+00 0.0000000000000000e+00
ITEM: ATOMS id type xs ys zs fx fy fz
1 1 0 0 0 -6.93889e-18 4.16334e-17 7.97973e-17
2 1 0 0.5 0.5 3.46945e-18 0 -2.42861e-17
4 1 0.5 0.5 0 6.93889e-18 1.38778e-17 5.89806e-17
3 1 0.5 0 0.5 0 1.38778e-17 -1.73472e-17
ITEM: TIMESTEP
19
ITEM: NUMBER OF ATOMS
4
ITEM: BOX BOUNDS xy xz yz pp pp pp
3.4648467736914127e-03 4.0354648464263070e+00 -0.0000000000000000e+00
3.4648467736914127e-03 4.0354648464263070e+00 0.0000000000000000e+00
3.4648467736914127e-03 4.0354648464263070e+00 0.0000000000000000e+00
ITEM: ATOMS id type xs ys zs fx fy fz
1 1 0 0 0 0 5.55112e-17 4.85723e-17
2 1 0 0.5 0.5 6.93889e-18 -1.38778e-17 2.42861e-17
4 1 0.5 0.5 0 -6.93889e-18 -2.77556e-17 3.81639e-17
3 1 0.5 0 0.5 6.93889e-18 -1.38778e-17 6.93889e-18
ITEM: TIMESTEP
20
ITEM: NUMBER OF ATOMS
4
ITEM: BOX BOUNDS xy xz yz pp pp pp
3.4648467738944934e-03 4.0354648464261036e+00 -0.0000000000000000e+00
3.4648467738944955e-03 4.0354648464261036e+00 0.0000000000000000e+00
3.4648467738944851e-03 4.0354648464261036e+00 0.0000000000000000e+00
ITEM: ATOMS id type xs ys zs fx fy fz
1 1 0 1.0756e-19 1.0756e-19 6.93889e-18 0 -2.08167e-17
2 1 0 0.5 0.5 -1.38778e-17 0 -2.94903e-17
4 1 0.5 0.5 1.0756e-19 6.93889e-18 -2.77556e-17 -4.51028e-17
3 1 0.5 0 0.5 0 1.38778e-17 -2.77556e-17
ITEM: TIMESTEP
21
ITEM: NUMBER OF ATOMS
4
ITEM: BOX BOUNDS xy xz yz pp pp pp
3.4648467738939985e-03 4.0354648464261045e+00 1.4483567325872354e-18
3.4648467738939946e-03 4.0354648464261045e+00 -5.2174360618371453e-18
3.4648467738940037e-03 4.0354648464261045e+00 -8.0041126000297303e-18
ITEM: ATOMS id type xs ys zs fx fy fz
1 1 1.00546e-37 1.0756e-19 1.0756e-19 0 0 6.245e-17
2 1 3.71568e-20 0.5 0.5 6.93889e-18 -2.77556e-17 -2.77556e-17
4 1 0.5 0.5 0 -6.93889e-18 -2.60209e-18 5.55112e-17
3 1 0.5 2.45358e-20 0.5 0 1.38778e-17 -2.08167e-17
