ITEM: TIMESTEP
0
ITEM: NUMBER OF ATOMS
4
ITEM: BOX BOUNDS xy xz yz pp pp pp
0.0000000000000000e+00 4.0369359481000000e+00 0.0000000000000000e+00
0.0000000000000000e+00 4.0369359481000000e+00 0.0000000000000000e+00
0.0000000000000000e+00 3.9963626978000000e+00 0.0000000000000000e+00
ITEM: ATOMS id type xs ys zs fx fy fz
1 1 0 0 0 2.43722e-10 2.43723e-10 -1.82922e-17
2 1 0 0.5 0.5 2.43722e-10 -2.43722e-10 2.61568e-17
4 1 0.5 0 0.5 -2.43722e-10 2.43722e-10 4.76131e-18
3 1 0.5 0.5 0 -2.43722e-10 -2.43723e-10 -4.95657e-17
ITEM: TIMESTEP
1
ITEM: NUMBER OF ATOMS
4
ITEM: BOX BOUNDS xy xz yz pp pp pp
0.0000000000000000e+00 4.0369359481000000e+00 0.0000000000000000e+00
0.0000000000000000e+00 4.0369359481000000e+00 0.0000000000000000e+00
0.0000000000000000e+00 3.9963626978000000e+00 0.0000000000000000e+00
ITEM: ATOMS id type xs ys zs fx fy fz
1 1 6.19282e-12 6.19283e-12 0 -5.96745e-16 -2.42482e-16 -7.85638e-17
2 1 6.19282e-12 0.5 0.5 -1.66533e-16 3.43258e-16 1.14287e-16
4 1 0.5 6.19283e-12 0.5 5.68989e-16 -4.05004e-16 4.07671e-17
3 1 0.5 0.5 0 2.35922e-16 2.39175e-16 -2.70982e-17
