
5 atoms
1 atom types
   0.0000000000    2.8637816768 xlo xhi
   0.0000000000    2.4801076830 ylo yhi
   0.0000000000   23.3820690103 zlo zhi
   1.4318908384    1.4418721642    0.8266809778 xy xz yz

Atoms # atomic

     1      1    2.8642807431    1.6534040428    1.1691034505
     2      1    4.2971697140    2.4801044455    3.5073103515
     3      1    1.4343861698    0.8266971652    5.8455172526
     4      1    2.8672751408    1.6533975678    8.1837241536
     5      1    4.3001641118    2.4800979705   10.5219310546
