ITEM: TIMESTEP
0
ITEM: NUMBER OF ATOMS
5
ITEM: BOX BOUNDS xy xz yz pp pp pp
0.0000000000000000e+00 5.7375446794000000e+00 1.4318908384000000e+00
0.0000000000000000e+00 3.3067886608000001e+00 1.4418721642000001e+00
0.0000000000000000e+00 2.3382069010300000e+01 8.2668097780000005e-01
ITEM: ATOMS id type xs ys zs fx fy fz
1 1 0.65 0.65 0.05 0.000859465 -2.7921e-06 -0.818285
2 1 0.95 0.95 0.15 -0.000245088 8.74287e-07 0.818123
3 1 0.25 0.25 0.25 -7.89823e-12 -8.64246e-11 -7.08762e-10
4 1 0.55 0.55 0.35 0.000245088 -8.74192e-07 -0.818123
5 1 0.85 0.85 0.45 -0.000859465 2.79209e-06 0.818285
