ITEM: TIMESTEP
0
ITEM: NUMBER OF ATOMS
4
ITEM: BOX BOUNDS xy xz yz pp pp pp
0.0000000000000000e+00 4.3627290483000003e+00 0.0000000000000000e+00
0.0000000000000000e+00 4.3627290483000003e+00 0.0000000000000000e+00
0.0000000000000000e+00 4.3627290483000003e+00 0.0000000000000000e+00
ITEM: ATOMS id type xs ys zs fx fy fz
1 1 0 0 0 2.74543e-10 2.74543e-10 2.74543e-10
4 1 0.5 0 0.5 -2.74543e-10 2.74543e-10 -2.74543e-10
3 1 0.5 0.5 0 -2.74543e-10 -2.74543e-10 2.74543e-10
2 1 0 0.5 0.5 2.74543e-10 -2.74543e-10 -2.74543e-10
ITEM: TIMESTEP
1
ITEM: NUMBER OF ATOMS
4
ITEM: BOX BOUNDS xy xz yz pp pp pp
0.0000000000000000e+00 4.3627290483000003e+00 0.0000000000000000e+00
0.0000000000000000e+00 4.3627290483000003e+00 0.0000000000000000e+00
0.0000000000000000e+00 4.3627290483000003e+00 0.0000000000000000e+00
ITEM: ATOMS id type xs ys zs fx fy fz
1 1 5.73036e-12 5.73036e-12 5.73036e-12 -3.83027e-15 -3.35842e-15 -3.20577e-15
4 1 0.5 5.73037e-12 0.5 3.77476e-15 -3.45557e-15 3.02536e-15
3 1 0.5 0.5 5.73036e-12 3.73312e-15 3.3112e-15 -2.88658e-15
2 1 5.73036e-12 0.5 0.5 -3.747e-15 3.48332e-15 2.9976e-15
