 vasp.6.4.2 20Jul23 (build Apr 22 2024 22:35:45) complex                         
 executed on             LinuxGNU date 2024.05.26  16:17:02
 running   14 mpi-ranks, with    2 threads/rank, on    1 nodes
 distrk:  each k-point on   14 cores,    1 groups
 distr:  one band on NCORE=   1 cores,   14 groups


--------------------------------------------------------------------------------------------------------


 INCAR:
   ALGO = Fast
   EDIFF = 1e-06
   ENCUT = 400
   IBRION = 2
   ISIF = 2
   ISMEAR = 1
   KSPACING = 0.08
   LCHARG = False
   LREAL = Auto
   LWAVE = False
   NELM = 60
   NELMIN = 4
   NSW = 100
   PREC = Accurate
   SIGMA = 0.2
   SYSTEM = Al fcc relaxation

 POTCAR:    PAW_PBE Al 04Jan2001                  
 POTCAR:    PAW_PBE Al 04Jan2001                  
   SHA256 =  17880443556af62b473fe41b62a467bd001ad55d2cabe504a3f22e34d4e9db96 Al/POTCAR             
   COPYR  = (c) Copyright 04Jan2001 Georg Kresse                                                    
   COPYR  = This file is part of the software VASP. Any use, copying, and all other rights are regul
   COPYR  = If you do not have a valid VASP license, you may not use, copy or distribute this file. 
   VRHFIN =Al: s2p1                                                                                 
   LEXCH  = PE                                                                                      
   EATOM  =    53.5387 eV,    3.9350 Ry                                                             
                                                                                                    
   TITEL  = PAW_PBE Al 04Jan2001                                                                    
   LULTRA =        F    use ultrasoft PP ?                                                          
   IUNSCR =        1    unscreen: 0-lin 1-nonlin 2-no                                               
   RPACOR =    1.500    partial core radius                                                         
   POMASS =   26.981; ZVAL   =    3.000    mass and valenz                                          
   RCORE  =    1.900    outmost cutoff radius                                                       
   RWIGS  =    2.650; RWIGS  =    1.402    wigner-seitz radius (au A)                               
   ENMAX  =  240.300; ENMIN  =  180.225 eV                                                          
   ICORE  =        2    local potential                                                             
   LCOR   =        T    correct aug charges                                                         
   LPAW   =        T    paw PP                                                                      
   EAUG   =  291.052                                                                                
   DEXC   =    0.000                                                                                
   RMAX   =    1.939    core radius for proj-oper                                                   
   RAUG   =    1.300    factor for augmentation sphere                                              
   RDEP   =    1.966    radius for radial grids                                                     
   RDEPT  =    1.856    core radius for aug-charge                                                  
                                                                                                    
   Atomic configuration                                                                             
    6 entries                                                                                       
     n  l   j            E        occ.                                                              
     1  0  0.50     -1511.1048   2.0000                                                             
     2  0  0.50      -108.1629   2.0000                                                             
     2  1  1.50       -69.6402   6.0000                                                             
     3  0  0.50        -7.7528   2.0000                                                             
     3  1  1.50        -2.7121   1.0000                                                             
     3  2  2.50        -2.7212   0.0000                                                             
   Description                                                                                      
     l       E           TYP  RCUT    TYP  RCUT                                                     
     0     -7.7528455     23  1.900                                                                 
     0     -3.3096929     23  1.900                                                                 
     1     -2.7120682     23  1.900                                                                 
     1     13.6058260     23  1.900                                                                 
     2     -2.7211652      7  1.900                                                                 
  local pseudopotential read in
  partial core-charges read in
  partial kinetic energy density read in
  atomic valenz-charges read in
  non local Contribution for L=           0  read in
    real space projection operators read in
  non local Contribution for L=           0  read in
    real space projection operators read in
  non local Contribution for L=           1  read in
    real space projection operators read in
  non local Contribution for L=           1  read in
    real space projection operators read in
    PAW grid and wavefunctions read in

   number of l-projection  operators is LMAX  =           4
   number of lm-projection operators is LMMAX =           8

 -----------------------------------------------------------------------------
|                                                                             |
|               ----> ADVICE to this user running VASP <----                  |
|                                                                             |
|     You have a (more or less) 'small supercell' and for smaller cells       |
|     it is recommended to use the reciprocal-space projection scheme!        |
|     The real-space optimization is not efficient for small cells and it     |
|     is also less accurate ...                                               |
|     Therefore, set LREAL=.FALSE. in the INCAR file.                         |
|                                                                             |
 -----------------------------------------------------------------------------

 Optimization of the real space projectors (new method)

 maximal supplied QI-value         = 19.84
 optimisation between [QCUT,QGAM] = [ 10.12, 20.44] = [ 28.68,116.96] Ry 
 Optimized for a Real-space Cutoff    1.38 Angstroem

   l    n(q)    QCUT    max X(q) W(low)/X(q) W(high)/X(q)  e(spline) 
   0      8    10.119   176.870    0.39E-04    0.93E-04    0.54E-07
   0      8    10.119   105.762    0.37E-04    0.91E-04    0.53E-07
   1      8    10.119    55.370    0.18E-03    0.13E-03    0.19E-06
   1      8    10.119    20.208    0.17E-03    0.12E-03    0.18E-06
  PAW_PBE Al 04Jan2001                  :
 energy of atom  1       EATOM=  -53.5387
 kinetic energy error for atom=    0.0005 (will be added to EATOM!!)


 POSCAR: Al4
  positions in direct lattice
  No initial velocities read in
 exchange correlation table for  LEXCH =        8
   RHO(1)=    0.500       N(1)  =     2000
   RHO(2)=  100.500       N(2)  =     4000



--------------------------------------------------------------------------------------------------------


 ion  position               nearest neighbor table
   1  0.000  0.000  0.000-   2 2.85   4 2.85   2 2.85   2 2.85   4 2.85   2 2.85   4 2.85   4 2.85
                             3 2.86   3 2.86   3 2.86   3 2.86
   2  0.000  0.500  0.500-   1 2.85   3 2.85   1 2.85   1 2.85   3 2.85   1 2.85   3 2.85   3 2.85
                             4 2.86   4 2.86   4 2.86   4 2.86
   3  0.500  0.000  0.500-   2 2.85   4 2.85   4 2.85   2 2.85   4 2.85   4 2.85   2 2.85   2 2.85
                             1 2.86   1 2.86   1 2.86   1 2.86
   4  0.500  0.500  0.000-   1 2.85   3 2.85   3 2.85   1 2.85   3 2.85   3 2.85   1 2.85   1 2.85
                             2 2.86   2 2.86   2 2.86   2 2.86

  LATTYP: Found a simple tetragonal cell.
 ALAT       =     4.0389296932
 C/A-ratio  =     0.9949874371
  
  Lattice vectors:
  
 A1 = (  -4.0389296932,   0.0000000000,   0.0000000000)
 A2 = (   0.0000000000,   0.0000000000,   4.0389296932)
 A3 = (   0.0000000000,   4.0186843041,   0.0000000000)


Analysis of symmetry for initial positions (statically):
=====================================================================
 Subroutine PRICEL returns following result:
 
  LATTYP: Found a body centered tetragonal cell.
 ALAT       =     2.8559545748
 C/A-ratio  =     1.4071247279
  
  Lattice vectors:
  
 A1 = (   0.0000000000,  -2.0093421520,   2.0194648466)
 A2 = (   0.0000000000,  -2.0093421520,  -2.0194648466)
 A3 = (   2.0194648466,   2.0093421520,  -0.0000000000)
 
   4 primitive cells build up your supercell.
 

 Routine SETGRP: Setting up the symmetry group for a 
 simple tetragonal supercell.


 Subroutine GETGRP returns: Found 16 space group operations
 (whereof 16 operations were pure point group operations)
 out of a pool of 16 trial point group operations.


The static configuration has the point symmetry D_4h.


Analysis of symmetry for dynamics (positions and initial velocities):
=====================================================================
 Subroutine PRICEL returns following result:
 
  LATTYP: Found a body centered tetragonal cell.
 ALAT       =     2.8559545748
 C/A-ratio  =     1.4071247279
  
  Lattice vectors:
  
 A1 = (   0.0000000000,  -2.0093421520,   2.0194648466)
 A2 = (   0.0000000000,  -2.0093421520,  -2.0194648466)
 A3 = (   2.0194648466,   2.0093421520,  -0.0000000000)
 
   4 primitive cells build up your supercell.
 

 Routine SETGRP: Setting up the symmetry group for a 
 simple tetragonal supercell.


 Subroutine GETGRP returns: Found 16 space group operations
 (whereof 16 operations were pure point group operations)
 out of a pool of 16 trial point group operations.


The dynamic configuration has the point symmetry D_4h.


 Subroutine INISYM returns: Found 16 space group operations
 (whereof 16 operations are pure point group operations),
 and found     4 'primitive' translations


----------------------------------------------------------------------------------------

                                     Primitive cell                                     

  volume of cell :      16.3892

  direct lattice vectors                    reciprocal lattice vectors
     0.000000000 -2.009342152  2.019464847     0.247590346 -0.248837660  0.247590346
     0.000000000 -2.009342152 -2.019464847     0.247590346 -0.248837660 -0.247590346
     2.019464847  2.009342152 -0.000000000     0.495180692  0.000000000 -0.000000000

  length of vectors
     2.848805741  2.848805741  2.848805741     0.429560403  0.429560403  0.495180692

  position of ions in fractional coordinates (direct lattice)
     0.000000000  0.000000000  0.000000000

  ion indices of the primitive-cell ions
   primitive index   ion index
                 1           1

----------------------------------------------------------------------------------------



 KPOINTS: Automatic kpoint scheme                 

Automatic generation of k-mesh.
 Grid dimensions read from file:
 generate k-points for:   20   20   20

 Generating k-lattice:

  Cartesian coordinates                     Fractional coordinates (reciprocal lattice)
     0.012379517  0.000000000 -0.000000000     0.050000000 -0.000000000  0.000000000
     0.000000000  0.012441883 -0.000000000     0.000000000  0.050000000  0.000000000
     0.000000000 -0.000000000  0.012379517     0.000000000  0.000000000  0.050000000

  Length of vectors
     0.012379517  0.012441883  0.012379517

  Shift w.r.t. Gamma in fractional coordinates (k-lattice)
     0.500000000  0.500000000  0.500000000

 
 Subroutine IBZKPT returns following result:
 ===========================================
 
 Found    550 irreducible k-points:
 
 Following reciprocal coordinates:
            Coordinates               Weight
  0.025000  0.025000  0.025000      8.000000
  0.075000  0.025000  0.025000     16.000000
  0.125000  0.025000  0.025000     16.000000
  0.175000  0.025000  0.025000     16.000000
  0.225000  0.025000  0.025000     16.000000
  0.275000  0.025000  0.025000     16.000000
  0.325000  0.025000  0.025000     16.000000
  0.375000  0.025000  0.025000     16.000000
  0.425000  0.025000  0.025000     16.000000
  0.475000  0.025000  0.025000     16.000000
  0.025000  0.075000  0.025000      8.000000
  0.075000  0.075000  0.025000     16.000000
  0.125000  0.075000  0.025000     16.000000
  0.175000  0.075000  0.025000     16.000000
  0.225000  0.075000  0.025000     16.000000
  0.275000  0.075000  0.025000     16.000000
  0.325000  0.075000  0.025000     16.000000
  0.375000  0.075000  0.025000     16.000000
  0.425000  0.075000  0.025000     16.000000
  0.475000  0.075000  0.025000     16.000000
  0.025000  0.125000  0.025000      8.000000
  0.075000  0.125000  0.025000     16.000000
  0.125000  0.125000  0.025000     16.000000
  0.175000  0.125000  0.025000     16.000000
  0.225000  0.125000  0.025000     16.000000
  0.275000  0.125000  0.025000     16.000000
  0.325000  0.125000  0.025000     16.000000
  0.375000  0.125000  0.025000     16.000000
  0.425000  0.125000  0.025000     16.000000
  0.475000  0.125000  0.025000     16.000000
  0.025000  0.175000  0.025000      8.000000
  0.075000  0.175000  0.025000     16.000000
  0.125000  0.175000  0.025000     16.000000
  0.175000  0.175000  0.025000     16.000000
  0.225000  0.175000  0.025000     16.000000
  0.275000  0.175000  0.025000     16.000000
  0.325000  0.175000  0.025000     16.000000
  0.375000  0.175000  0.025000     16.000000
  0.425000  0.175000  0.025000     16.000000
  0.475000  0.175000  0.025000     16.000000
  0.025000  0.225000  0.025000      8.000000
  0.075000  0.225000  0.025000     16.000000
  0.125000  0.225000  0.025000     16.000000
  0.175000  0.225000  0.025000     16.000000
  0.225000  0.225000  0.025000     16.000000
  0.275000  0.225000  0.025000     16.000000
  0.325000  0.225000  0.025000     16.000000
  0.375000  0.225000  0.025000     16.000000
  0.425000  0.225000  0.025000     16.000000
  0.475000  0.225000  0.025000     16.000000
  0.025000  0.275000  0.025000      8.000000
  0.075000  0.275000  0.025000     16.000000
  0.125000  0.275000  0.025000     16.000000
  0.175000  0.275000  0.025000     16.000000
  0.225000  0.275000  0.025000     16.000000
  0.275000  0.275000  0.025000     16.000000
  0.325000  0.275000  0.025000     16.000000
  0.375000  0.275000  0.025000     16.000000
  0.425000  0.275000  0.025000     16.000000
  0.475000  0.275000  0.025000     16.000000
  0.025000  0.325000  0.025000      8.000000
  0.075000  0.325000  0.025000     16.000000
  0.125000  0.325000  0.025000     16.000000
  0.175000  0.325000  0.025000     16.000000
  0.225000  0.325000  0.025000     16.000000
  0.275000  0.325000  0.025000     16.000000
  0.325000  0.325000  0.025000     16.000000
  0.375000  0.325000  0.025000     16.000000
  0.425000  0.325000  0.025000     16.000000
  0.475000  0.325000  0.025000     16.000000
  0.025000  0.375000  0.025000      8.000000
  0.075000  0.375000  0.025000     16.000000
  0.125000  0.375000  0.025000     16.000000
  0.175000  0.375000  0.025000     16.000000
  0.225000  0.375000  0.025000     16.000000
  0.275000  0.375000  0.025000     16.000000
  0.325000  0.375000  0.025000     16.000000
  0.375000  0.375000  0.025000     16.000000
  0.425000  0.375000  0.025000     16.000000
  0.475000  0.375000  0.025000     16.000000
  0.025000  0.425000  0.025000      8.000000
  0.075000  0.425000  0.025000     16.000000
  0.125000  0.425000  0.025000     16.000000
  0.175000  0.425000  0.025000     16.000000
  0.225000  0.425000  0.025000     16.000000
  0.275000  0.425000  0.025000     16.000000
  0.325000  0.425000  0.025000     16.000000
  0.375000  0.425000  0.025000     16.000000
  0.425000  0.425000  0.025000     16.000000
  0.475000  0.425000  0.025000     16.000000
  0.025000  0.475000  0.025000      8.000000
  0.075000  0.475000  0.025000     16.000000
  0.125000  0.475000  0.025000     16.000000
  0.175000  0.475000  0.025000     16.000000
  0.225000  0.475000  0.025000     16.000000
  0.275000  0.475000  0.025000     16.000000
  0.325000  0.475000  0.025000     16.000000
  0.375000  0.475000  0.025000     16.000000
  0.425000  0.475000  0.025000     16.000000
  0.475000  0.475000  0.025000     16.000000
  0.075000  0.025000  0.075000      8.000000
  0.125000  0.025000  0.075000     16.000000
  0.175000  0.025000  0.075000     16.000000
  0.225000  0.025000  0.075000     16.000000
  0.275000  0.025000  0.075000     16.000000
  0.325000  0.025000  0.075000     16.000000
  0.375000  0.025000  0.075000     16.000000
  0.425000  0.025000  0.075000     16.000000
  0.475000  0.025000  0.075000     16.000000
  0.075000  0.075000  0.075000      8.000000
  0.125000  0.075000  0.075000     16.000000
  0.175000  0.075000  0.075000     16.000000
  0.225000  0.075000  0.075000     16.000000
  0.275000  0.075000  0.075000     16.000000
  0.325000  0.075000  0.075000     16.000000
  0.375000  0.075000  0.075000     16.000000
  0.425000  0.075000  0.075000     16.000000
  0.475000  0.075000  0.075000     16.000000
  0.075000  0.125000  0.075000      8.000000
  0.125000  0.125000  0.075000     16.000000
  0.175000  0.125000  0.075000     16.000000
  0.225000  0.125000  0.075000     16.000000
  0.275000  0.125000  0.075000     16.000000
  0.325000  0.125000  0.075000     16.000000
  0.375000  0.125000  0.075000     16.000000
  0.425000  0.125000  0.075000     16.000000
  0.475000  0.125000  0.075000     16.000000
  0.075000  0.175000  0.075000      8.000000
  0.125000  0.175000  0.075000     16.000000
  0.175000  0.175000  0.075000     16.000000
  0.225000  0.175000  0.075000     16.000000
  0.275000  0.175000  0.075000     16.000000
  0.325000  0.175000  0.075000     16.000000
  0.375000  0.175000  0.075000     16.000000
  0.425000  0.175000  0.075000     16.000000
  0.475000  0.175000  0.075000     16.000000
  0.075000  0.225000  0.075000      8.000000
  0.125000  0.225000  0.075000     16.000000
  0.175000  0.225000  0.075000     16.000000
  0.225000  0.225000  0.075000     16.000000
  0.275000  0.225000  0.075000     16.000000
  0.325000  0.225000  0.075000     16.000000
  0.375000  0.225000  0.075000     16.000000
  0.425000  0.225000  0.075000     16.000000
  0.475000  0.225000  0.075000     16.000000
  0.075000  0.275000  0.075000      8.000000
  0.125000  0.275000  0.075000     16.000000
  0.175000  0.275000  0.075000     16.000000
  0.225000  0.275000  0.075000     16.000000
  0.275000  0.275000  0.075000     16.000000
  0.325000  0.275000  0.075000     16.000000
  0.375000  0.275000  0.075000     16.000000
  0.425000  0.275000  0.075000     16.000000
  0.475000  0.275000  0.075000     16.000000
  0.075000  0.325000  0.075000      8.000000
  0.125000  0.325000  0.075000     16.000000
  0.175000  0.325000  0.075000     16.000000
  0.225000  0.325000  0.075000     16.000000
  0.275000  0.325000  0.075000     16.000000
  0.325000  0.325000  0.075000     16.000000
  0.375000  0.325000  0.075000     16.000000
  0.425000  0.325000  0.075000     16.000000
  0.475000  0.325000  0.075000     16.000000
  0.075000  0.375000  0.075000      8.000000
  0.125000  0.375000  0.075000     16.000000
  0.175000  0.375000  0.075000     16.000000
  0.225000  0.375000  0.075000     16.000000
  0.275000  0.375000  0.075000     16.000000
  0.325000  0.375000  0.075000     16.000000
  0.375000  0.375000  0.075000     16.000000
  0.425000  0.375000  0.075000     16.000000
  0.475000  0.375000  0.075000     16.000000
  0.075000  0.425000  0.075000      8.000000
  0.125000  0.425000  0.075000     16.000000
  0.175000  0.425000  0.075000     16.000000
  0.225000  0.425000  0.075000     16.000000
  0.275000  0.425000  0.075000     16.000000
  0.325000  0.425000  0.075000     16.000000
  0.375000  0.425000  0.075000     16.000000
  0.425000  0.425000  0.075000     16.000000
  0.475000  0.425000  0.075000     16.000000
  0.075000  0.475000  0.075000      8.000000
  0.125000  0.475000  0.075000     16.000000
  0.175000  0.475000  0.075000     16.000000
  0.225000  0.475000  0.075000     16.000000
  0.275000  0.475000  0.075000     16.000000
  0.325000  0.475000  0.075000     16.000000
  0.375000  0.475000  0.075000     16.000000
  0.425000  0.475000  0.075000     16.000000
  0.475000  0.475000  0.075000     16.000000
  0.125000  0.025000  0.125000      8.000000
  0.175000  0.025000  0.125000     16.000000
  0.225000  0.025000  0.125000     16.000000
  0.275000  0.025000  0.125000     16.000000
  0.325000  0.025000  0.125000     16.000000
  0.375000  0.025000  0.125000     16.000000
  0.425000  0.025000  0.125000     16.000000
  0.475000  0.025000  0.125000     16.000000
  0.125000  0.075000  0.125000      8.000000
  0.175000  0.075000  0.125000     16.000000
  0.225000  0.075000  0.125000     16.000000
  0.275000  0.075000  0.125000     16.000000
  0.325000  0.075000  0.125000     16.000000
  0.375000  0.075000  0.125000     16.000000
  0.425000  0.075000  0.125000     16.000000
  0.475000  0.075000  0.125000     16.000000
  0.125000  0.125000  0.125000      8.000000
  0.175000  0.125000  0.125000     16.000000
  0.225000  0.125000  0.125000     16.000000
  0.275000  0.125000  0.125000     16.000000
  0.325000  0.125000  0.125000     16.000000
  0.375000  0.125000  0.125000     16.000000
  0.425000  0.125000  0.125000     16.000000
  0.475000  0.125000  0.125000     16.000000
  0.125000  0.175000  0.125000      8.000000
  0.175000  0.175000  0.125000     16.000000
  0.225000  0.175000  0.125000     16.000000
  0.275000  0.175000  0.125000     16.000000
  0.325000  0.175000  0.125000     16.000000
  0.375000  0.175000  0.125000     16.000000
  0.425000  0.175000  0.125000     16.000000
  0.475000  0.175000  0.125000     16.000000
  0.125000  0.225000  0.125000      8.000000
  0.175000  0.225000  0.125000     16.000000
  0.225000  0.225000  0.125000     16.000000
  0.275000  0.225000  0.125000     16.000000
  0.325000  0.225000  0.125000     16.000000
  0.375000  0.225000  0.125000     16.000000
  0.425000  0.225000  0.125000     16.000000
  0.475000  0.225000  0.125000     16.000000
  0.125000  0.275000  0.125000      8.000000
  0.175000  0.275000  0.125000     16.000000
  0.225000  0.275000  0.125000     16.000000
  0.275000  0.275000  0.125000     16.000000
  0.325000  0.275000  0.125000     16.000000
  0.375000  0.275000  0.125000     16.000000
  0.425000  0.275000  0.125000     16.000000
  0.475000  0.275000  0.125000     16.000000
  0.125000  0.325000  0.125000      8.000000
  0.175000  0.325000  0.125000     16.000000
  0.225000  0.325000  0.125000     16.000000
  0.275000  0.325000  0.125000     16.000000
  0.325000  0.325000  0.125000     16.000000
  0.375000  0.325000  0.125000     16.000000
  0.425000  0.325000  0.125000     16.000000
  0.475000  0.325000  0.125000     16.000000
  0.125000  0.375000  0.125000      8.000000
  0.175000  0.375000  0.125000     16.000000
  0.225000  0.375000  0.125000     16.000000
  0.275000  0.375000  0.125000     16.000000
  0.325000  0.375000  0.125000     16.000000
  0.375000  0.375000  0.125000     16.000000
  0.425000  0.375000  0.125000     16.000000
  0.475000  0.375000  0.125000     16.000000
  0.125000  0.425000  0.125000      8.000000
  0.175000  0.425000  0.125000     16.000000
  0.225000  0.425000  0.125000     16.000000
  0.275000  0.425000  0.125000     16.000000
  0.325000  0.425000  0.125000     16.000000
  0.375000  0.425000  0.125000     16.000000
  0.425000  0.425000  0.125000     16.000000
  0.475000  0.425000  0.125000     16.000000
  0.125000  0.475000  0.125000      8.000000
  0.175000  0.475000  0.125000     16.000000
  0.225000  0.475000  0.125000     16.000000
  0.275000  0.475000  0.125000     16.000000
  0.325000  0.475000  0.125000     16.000000
  0.375000  0.475000  0.125000     16.000000
  0.425000  0.475000  0.125000     16.000000
  0.475000  0.475000  0.125000     16.000000
  0.175000  0.025000  0.175000      8.000000
  0.225000  0.025000  0.175000     16.000000
  0.275000  0.025000  0.175000     16.000000
  0.325000  0.025000  0.175000     16.000000
  0.375000  0.025000  0.175000     16.000000
  0.425000  0.025000  0.175000     16.000000
  0.475000  0.025000  0.175000     16.000000
  0.175000  0.075000  0.175000      8.000000
  0.225000  0.075000  0.175000     16.000000
  0.275000  0.075000  0.175000     16.000000
  0.325000  0.075000  0.175000     16.000000
  0.375000  0.075000  0.175000     16.000000
  0.425000  0.075000  0.175000     16.000000
  0.475000  0.075000  0.175000     16.000000
  0.175000  0.125000  0.175000      8.000000
  0.225000  0.125000  0.175000     16.000000
  0.275000  0.125000  0.175000     16.000000
  0.325000  0.125000  0.175000     16.000000
  0.375000  0.125000  0.175000     16.000000
  0.425000  0.125000  0.175000     16.000000
  0.475000  0.125000  0.175000     16.000000
  0.175000  0.175000  0.175000      8.000000
  0.225000  0.175000  0.175000     16.000000
  0.275000  0.175000  0.175000     16.000000
  0.325000  0.175000  0.175000     16.000000
  0.375000  0.175000  0.175000     16.000000
  0.425000  0.175000  0.175000     16.000000
  0.475000  0.175000  0.175000     16.000000
  0.175000  0.225000  0.175000      8.000000
  0.225000  0.225000  0.175000     16.000000
  0.275000  0.225000  0.175000     16.000000
  0.325000  0.225000  0.175000     16.000000
  0.375000  0.225000  0.175000     16.000000
  0.425000  0.225000  0.175000     16.000000
  0.475000  0.225000  0.175000     16.000000
  0.175000  0.275000  0.175000      8.000000
  0.225000  0.275000  0.175000     16.000000
  0.275000  0.275000  0.175000     16.000000
  0.325000  0.275000  0.175000     16.000000
  0.375000  0.275000  0.175000     16.000000
  0.425000  0.275000  0.175000     16.000000
  0.475000  0.275000  0.175000     16.000000
  0.175000  0.325000  0.175000      8.000000
  0.225000  0.325000  0.175000     16.000000
  0.275000  0.325000  0.175000     16.000000
  0.325000  0.325000  0.175000     16.000000
  0.375000  0.325000  0.175000     16.000000
  0.425000  0.325000  0.175000     16.000000
  0.475000  0.325000  0.175000     16.000000
  0.175000  0.375000  0.175000      8.000000
  0.225000  0.375000  0.175000     16.000000
  0.275000  0.375000  0.175000     16.000000
  0.325000  0.375000  0.175000     16.000000
  0.375000  0.375000  0.175000     16.000000
  0.425000  0.375000  0.175000     16.000000
  0.475000  0.375000  0.175000     16.000000
  0.175000  0.425000  0.175000      8.000000
  0.225000  0.425000  0.175000     16.000000
  0.275000  0.425000  0.175000     16.000000
  0.325000  0.425000  0.175000     16.000000
  0.375000  0.425000  0.175000     16.000000
  0.425000  0.425000  0.175000     16.000000
  0.475000  0.425000  0.175000     16.000000
  0.175000  0.475000  0.175000      8.000000
  0.225000  0.475000  0.175000     16.000000
  0.275000  0.475000  0.175000     16.000000
  0.325000  0.475000  0.175000     16.000000
  0.375000  0.475000  0.175000     16.000000
  0.425000  0.475000  0.175000     16.000000
  0.475000  0.475000  0.175000     16.000000
  0.225000  0.025000  0.225000      8.000000
  0.275000  0.025000  0.225000     16.000000
  0.325000  0.025000  0.225000     16.000000
  0.375000  0.025000  0.225000     16.000000
  0.425000  0.025000  0.225000     16.000000
  0.475000  0.025000  0.225000     16.000000
  0.225000  0.075000  0.225000      8.000000
  0.275000  0.075000  0.225000     16.000000
  0.325000  0.075000  0.225000     16.000000
  0.375000  0.075000  0.225000     16.000000
  0.425000  0.075000  0.225000     16.000000
  0.475000  0.075000  0.225000     16.000000
  0.225000  0.125000  0.225000      8.000000
  0.275000  0.125000  0.225000     16.000000
  0.325000  0.125000  0.225000     16.000000
  0.375000  0.125000  0.225000     16.000000
  0.425000  0.125000  0.225000     16.000000
  0.475000  0.125000  0.225000     16.000000
  0.225000  0.175000  0.225000      8.000000
  0.275000  0.175000  0.225000     16.000000
  0.325000  0.175000  0.225000     16.000000
  0.375000  0.175000  0.225000     16.000000
  0.425000  0.175000  0.225000     16.000000
  0.475000  0.175000  0.225000     16.000000
  0.225000  0.225000  0.225000      8.000000
  0.275000  0.225000  0.225000     16.000000
  0.325000  0.225000  0.225000     16.000000
  0.375000  0.225000  0.225000     16.000000
  0.425000  0.225000  0.225000     16.000000
  0.475000  0.225000  0.225000     16.000000
  0.225000  0.275000  0.225000      8.000000
  0.275000  0.275000  0.225000     16.000000
  0.325000  0.275000  0.225000     16.000000
  0.375000  0.275000  0.225000     16.000000
  0.425000  0.275000  0.225000     16.000000
  0.475000  0.275000  0.225000     16.000000
  0.225000  0.325000  0.225000      8.000000
  0.275000  0.325000  0.225000     16.000000
  0.325000  0.325000  0.225000     16.000000
  0.375000  0.325000  0.225000     16.000000
  0.425000  0.325000  0.225000     16.000000
  0.475000  0.325000  0.225000     16.000000
  0.225000  0.375000  0.225000      8.000000
  0.275000  0.375000  0.225000     16.000000
  0.325000  0.375000  0.225000     16.000000
  0.375000  0.375000  0.225000     16.000000
  0.425000  0.375000  0.225000     16.000000
  0.475000  0.375000  0.225000     16.000000
  0.225000  0.425000  0.225000      8.000000
  0.275000  0.425000  0.225000     16.000000
  0.325000  0.425000  0.225000     16.000000
  0.375000  0.425000  0.225000     16.000000
  0.425000  0.425000  0.225000     16.000000
  0.475000  0.425000  0.225000     16.000000
  0.225000  0.475000  0.225000      8.000000
  0.275000  0.475000  0.225000     16.000000
  0.325000  0.475000  0.225000     16.000000
  0.375000  0.475000  0.225000     16.000000
  0.425000  0.475000  0.225000     16.000000
  0.475000  0.475000  0.225000     16.000000
  0.275000  0.025000  0.275000      8.000000
  0.325000  0.025000  0.275000     16.000000
  0.375000  0.025000  0.275000     16.000000
  0.425000  0.025000  0.275000     16.000000
  0.475000  0.025000  0.275000     16.000000
  0.275000  0.075000  0.275000      8.000000
  0.325000  0.075000  0.275000     16.000000
  0.375000  0.075000  0.275000     16.000000
  0.425000  0.075000  0.275000     16.000000
  0.475000  0.075000  0.275000     16.000000
  0.275000  0.125000  0.275000      8.000000
  0.325000  0.125000  0.275000     16.000000
  0.375000  0.125000  0.275000     16.000000
  0.425000  0.125000  0.275000     16.000000
  0.475000  0.125000  0.275000     16.000000
  0.275000  0.175000  0.275000      8.000000
  0.325000  0.175000  0.275000     16.000000
  0.375000  0.175000  0.275000     16.000000
  0.425000  0.175000  0.275000     16.000000
  0.475000  0.175000  0.275000     16.000000
  0.275000  0.225000  0.275000      8.000000
  0.325000  0.225000  0.275000     16.000000
  0.375000  0.225000  0.275000     16.000000
  0.425000  0.225000  0.275000     16.000000
  0.475000  0.225000  0.275000     16.000000
  0.275000  0.275000  0.275000      8.000000
  0.325000  0.275000  0.275000     16.000000
  0.375000  0.275000  0.275000     16.000000
  0.425000  0.275000  0.275000     16.000000
  0.475000  0.275000  0.275000     16.000000
  0.275000  0.325000  0.275000      8.000000
  0.325000  0.325000  0.275000     16.000000
  0.375000  0.325000  0.275000     16.000000
  0.425000  0.325000  0.275000     16.000000
  0.475000  0.325000  0.275000     16.000000
  0.275000  0.375000  0.275000      8.000000
  0.325000  0.375000  0.275000     16.000000
  0.375000  0.375000  0.275000     16.000000
  0.425000  0.375000  0.275000     16.000000
  0.475000  0.375000  0.275000     16.000000
  0.275000  0.425000  0.275000      8.000000
  0.325000  0.425000  0.275000     16.000000
  0.375000  0.425000  0.275000     16.000000
  0.425000  0.425000  0.275000     16.000000
  0.475000  0.425000  0.275000     16.000000
  0.275000  0.475000  0.275000      8.000000
  0.325000  0.475000  0.275000     16.000000
  0.375000  0.475000  0.275000     16.000000
  0.425000  0.475000  0.275000     16.000000
  0.475000  0.475000  0.275000     16.000000
  0.325000  0.025000  0.325000      8.000000
  0.375000  0.025000  0.325000     16.000000
  0.425000  0.025000  0.325000     16.000000
  0.475000  0.025000  0.325000     16.000000
  0.325000  0.075000  0.325000      8.000000
  0.375000  0.075000  0.325000     16.000000
  0.425000  0.075000  0.325000     16.000000
  0.475000  0.075000  0.325000     16.000000
  0.325000  0.125000  0.325000      8.000000
  0.375000  0.125000  0.325000     16.000000
  0.425000  0.125000  0.325000     16.000000
  0.475000  0.125000  0.325000     16.000000
  0.325000  0.175000  0.325000      8.000000
  0.375000  0.175000  0.325000     16.000000
  0.425000  0.175000  0.325000     16.000000
  0.475000  0.175000  0.325000     16.000000
  0.325000  0.225000  0.325000      8.000000
  0.375000  0.225000  0.325000     16.000000
  0.425000  0.225000  0.325000     16.000000
  0.475000  0.225000  0.325000     16.000000
  0.325000  0.275000  0.325000      8.000000
  0.375000  0.275000  0.325000     16.000000
  0.425000  0.275000  0.325000     16.000000
  0.475000  0.275000  0.325000     16.000000
  0.325000  0.325000  0.325000      8.000000
  0.375000  0.325000  0.325000     16.000000
  0.425000  0.325000  0.325000     16.000000
  0.475000  0.325000  0.325000     16.000000
  0.325000  0.375000  0.325000      8.000000
  0.375000  0.375000  0.325000     16.000000
  0.425000  0.375000  0.325000     16.000000
  0.475000  0.375000  0.325000     16.000000
  0.325000  0.425000  0.325000      8.000000
  0.375000  0.425000  0.325000     16.000000
  0.425000  0.425000  0.325000     16.000000
  0.475000  0.425000  0.325000     16.000000
  0.325000  0.475000  0.325000      8.000000
  0.375000  0.475000  0.325000     16.000000
  0.425000  0.475000  0.325000     16.000000
  0.475000  0.475000  0.325000     16.000000
  0.375000  0.025000  0.375000      8.000000
  0.425000  0.025000  0.375000     16.000000
  0.475000  0.025000  0.375000     16.000000
  0.375000  0.075000  0.375000      8.000000
  0.425000  0.075000  0.375000     16.000000
  0.475000  0.075000  0.375000     16.000000
  0.375000  0.125000  0.375000      8.000000
  0.425000  0.125000  0.375000     16.000000
  0.475000  0.125000  0.375000     16.000000
  0.375000  0.175000  0.375000      8.000000
  0.425000  0.175000  0.375000     16.000000
  0.475000  0.175000  0.375000     16.000000
  0.375000  0.225000  0.375000      8.000000
  0.425000  0.225000  0.375000     16.000000
  0.475000  0.225000  0.375000     16.000000
  0.375000  0.275000  0.375000      8.000000
  0.425000  0.275000  0.375000     16.000000
  0.475000  0.275000  0.375000     16.000000
  0.375000  0.325000  0.375000      8.000000
  0.425000  0.325000  0.375000     16.000000
  0.475000  0.325000  0.375000     16.000000
  0.375000  0.375000  0.375000      8.000000
  0.425000  0.375000  0.375000     16.000000
  0.475000  0.375000  0.375000     16.000000
  0.375000  0.425000  0.375000      8.000000
  0.425000  0.425000  0.375000     16.000000
  0.475000  0.425000  0.375000     16.000000
  0.375000  0.475000  0.375000      8.000000
  0.425000  0.475000  0.375000     16.000000
  0.475000  0.475000  0.375000     16.000000
  0.425000  0.025000  0.425000      8.000000
  0.475000  0.025000  0.425000     16.000000
  0.425000  0.075000  0.425000      8.000000
  0.475000  0.075000  0.425000     16.000000
  0.425000  0.125000  0.425000      8.000000
  0.475000  0.125000  0.425000     16.000000
  0.425000  0.175000  0.425000      8.000000
  0.475000  0.175000  0.425000     16.000000
  0.425000  0.225000  0.425000      8.000000
  0.475000  0.225000  0.425000     16.000000
  0.425000  0.275000  0.425000      8.000000
  0.475000  0.275000  0.425000     16.000000
  0.425000  0.325000  0.425000      8.000000
  0.475000  0.325000  0.425000     16.000000
  0.425000  0.375000  0.425000      8.000000
  0.475000  0.375000  0.425000     16.000000
  0.425000  0.425000  0.425000      8.000000
  0.475000  0.425000  0.425000     16.000000
  0.425000  0.475000  0.425000      8.000000
  0.475000  0.475000  0.425000     16.000000
  0.475000  0.025000  0.475000      8.000000
  0.475000  0.075000  0.475000      8.000000
  0.475000  0.125000  0.475000      8.000000
  0.475000  0.175000  0.475000      8.000000
  0.475000  0.225000  0.475000      8.000000
  0.475000  0.275000  0.475000      8.000000
  0.475000  0.325000  0.475000      8.000000
  0.475000  0.375000  0.475000      8.000000
  0.475000  0.425000  0.475000      8.000000
  0.475000  0.475000  0.475000      8.000000
 
 Following cartesian coordinates:
            Coordinates               Weight
  0.006190  0.006221  0.006190      8.000000
  0.018569  0.006221  0.006190     16.000000
  0.030949  0.006221  0.006190     16.000000
  0.043328  0.006221  0.006190     16.000000
  0.055708  0.006221  0.006190     16.000000
  0.068087  0.006221  0.006190     16.000000
  0.080467  0.006221  0.006190     16.000000
  0.092846  0.006221  0.006190     16.000000
  0.105226  0.006221  0.006190     16.000000
  0.117605  0.006221  0.006190     16.000000
  0.006190  0.018663  0.006190      8.000000
  0.018569  0.018663  0.006190     16.000000
  0.030949  0.018663  0.006190     16.000000
  0.043328  0.018663  0.006190     16.000000
  0.055708  0.018663  0.006190     16.000000
  0.068087  0.018663  0.006190     16.000000
  0.080467  0.018663  0.006190     16.000000
  0.092846  0.018663  0.006190     16.000000
  0.105226  0.018663  0.006190     16.000000
  0.117605  0.018663  0.006190     16.000000
  0.006190  0.031105  0.006190      8.000000
  0.018569  0.031105  0.006190     16.000000
  0.030949  0.031105  0.006190     16.000000
  0.043328  0.031105  0.006190     16.000000
  0.055708  0.031105  0.006190     16.000000
  0.068087  0.031105  0.006190     16.000000
  0.080467  0.031105  0.006190     16.000000
  0.092846  0.031105  0.006190     16.000000
  0.105226  0.031105  0.006190     16.000000
  0.117605  0.031105  0.006190     16.000000
  0.006190  0.043547  0.006190      8.000000
  0.018569  0.043547  0.006190     16.000000
  0.030949  0.043547  0.006190     16.000000
  0.043328  0.043547  0.006190     16.000000
  0.055708  0.043547  0.006190     16.000000
  0.068087  0.043547  0.006190     16.000000
  0.080467  0.043547  0.006190     16.000000
  0.092846  0.043547  0.006190     16.000000
  0.105226  0.043547  0.006190     16.000000
  0.117605  0.043547  0.006190     16.000000
  0.006190  0.055988  0.006190      8.000000
  0.018569  0.055988  0.006190     16.000000
  0.030949  0.055988  0.006190     16.000000
  0.043328  0.055988  0.006190     16.000000
  0.055708  0.055988  0.006190     16.000000
  0.068087  0.055988  0.006190     16.000000
  0.080467  0.055988  0.006190     16.000000
  0.092846  0.055988  0.006190     16.000000
  0.105226  0.055988  0.006190     16.000000
  0.117605  0.055988  0.006190     16.000000
  0.006190  0.068430  0.006190      8.000000
  0.018569  0.068430  0.006190     16.000000
  0.030949  0.068430  0.006190     16.000000
  0.043328  0.068430  0.006190     16.000000
  0.055708  0.068430  0.006190     16.000000
  0.068087  0.068430  0.006190     16.000000
  0.080467  0.068430  0.006190     16.000000
  0.092846  0.068430  0.006190     16.000000
  0.105226  0.068430  0.006190     16.000000
  0.117605  0.068430  0.006190     16.000000
  0.006190  0.080872  0.006190      8.000000
  0.018569  0.080872  0.006190     16.000000
  0.030949  0.080872  0.006190     16.000000
  0.043328  0.080872  0.006190     16.000000
  0.055708  0.080872  0.006190     16.000000
  0.068087  0.080872  0.006190     16.000000
  0.080467  0.080872  0.006190     16.000000
  0.092846  0.080872  0.006190     16.000000
  0.105226  0.080872  0.006190     16.000000
  0.117605  0.080872  0.006190     16.000000
  0.006190  0.093314  0.006190      8.000000
  0.018569  0.093314  0.006190     16.000000
  0.030949  0.093314  0.006190     16.000000
  0.043328  0.093314  0.006190     16.000000
  0.055708  0.093314  0.006190     16.000000
  0.068087  0.093314  0.006190     16.000000
  0.080467  0.093314  0.006190     16.000000
  0.092846  0.093314  0.006190     16.000000
  0.105226  0.093314  0.006190     16.000000
  0.117605  0.093314  0.006190     16.000000
  0.006190  0.105756  0.006190      8.000000
  0.018569  0.105756  0.006190     16.000000
  0.030949  0.105756  0.006190     16.000000
  0.043328  0.105756  0.006190     16.000000
  0.055708  0.105756  0.006190     16.000000
  0.068087  0.105756  0.006190     16.000000
  0.080467  0.105756  0.006190     16.000000
  0.092846  0.105756  0.006190     16.000000
  0.105226  0.105756  0.006190     16.000000
  0.117605  0.105756  0.006190     16.000000
  0.006190  0.118198  0.006190      8.000000
  0.018569  0.118198  0.006190     16.000000
  0.030949  0.118198  0.006190     16.000000
  0.043328  0.118198  0.006190     16.000000
  0.055708  0.118198  0.006190     16.000000
  0.068087  0.118198  0.006190     16.000000
  0.080467  0.118198  0.006190     16.000000
  0.092846  0.118198  0.006190     16.000000
  0.105226  0.118198  0.006190     16.000000
  0.117605  0.118198  0.006190     16.000000
  0.018569  0.006221  0.018569      8.000000
  0.030949  0.006221  0.018569     16.000000
  0.043328  0.006221  0.018569     16.000000
  0.055708  0.006221  0.018569     16.000000
  0.068087  0.006221  0.018569     16.000000
  0.080467  0.006221  0.018569     16.000000
  0.092846  0.006221  0.018569     16.000000
  0.105226  0.006221  0.018569     16.000000
  0.117605  0.006221  0.018569     16.000000
  0.018569  0.018663  0.018569      8.000000
  0.030949  0.018663  0.018569     16.000000
  0.043328  0.018663  0.018569     16.000000
  0.055708  0.018663  0.018569     16.000000
  0.068087  0.018663  0.018569     16.000000
  0.080467  0.018663  0.018569     16.000000
  0.092846  0.018663  0.018569     16.000000
  0.105226  0.018663  0.018569     16.000000
  0.117605  0.018663  0.018569     16.000000
  0.018569  0.031105  0.018569      8.000000
  0.030949  0.031105  0.018569     16.000000
  0.043328  0.031105  0.018569     16.000000
  0.055708  0.031105  0.018569     16.000000
  0.068087  0.031105  0.018569     16.000000
  0.080467  0.031105  0.018569     16.000000
  0.092846  0.031105  0.018569     16.000000
  0.105226  0.031105  0.018569     16.000000
  0.117605  0.031105  0.018569     16.000000
  0.018569  0.043547  0.018569      8.000000
  0.030949  0.043547  0.018569     16.000000
  0.043328  0.043547  0.018569     16.000000
  0.055708  0.043547  0.018569     16.000000
  0.068087  0.043547  0.018569     16.000000
  0.080467  0.043547  0.018569     16.000000
  0.092846  0.043547  0.018569     16.000000
  0.105226  0.043547  0.018569     16.000000
  0.117605  0.043547  0.018569     16.000000
  0.018569  0.055988  0.018569      8.000000
  0.030949  0.055988  0.018569     16.000000
  0.043328  0.055988  0.018569     16.000000
  0.055708  0.055988  0.018569     16.000000
  0.068087  0.055988  0.018569     16.000000
  0.080467  0.055988  0.018569     16.000000
  0.092846  0.055988  0.018569     16.000000
  0.105226  0.055988  0.018569     16.000000
  0.117605  0.055988  0.018569     16.000000
  0.018569  0.068430  0.018569      8.000000
  0.030949  0.068430  0.018569     16.000000
  0.043328  0.068430  0.018569     16.000000
  0.055708  0.068430  0.018569     16.000000
  0.068087  0.068430  0.018569     16.000000
  0.080467  0.068430  0.018569     16.000000
  0.092846  0.068430  0.018569     16.000000
  0.105226  0.068430  0.018569     16.000000
  0.117605  0.068430  0.018569     16.000000
  0.018569  0.080872  0.018569      8.000000
  0.030949  0.080872  0.018569     16.000000
  0.043328  0.080872  0.018569     16.000000
  0.055708  0.080872  0.018569     16.000000
  0.068087  0.080872  0.018569     16.000000
  0.080467  0.080872  0.018569     16.000000
  0.092846  0.080872  0.018569     16.000000
  0.105226  0.080872  0.018569     16.000000
  0.117605  0.080872  0.018569     16.000000
  0.018569  0.093314  0.018569      8.000000
  0.030949  0.093314  0.018569     16.000000
  0.043328  0.093314  0.018569     16.000000
  0.055708  0.093314  0.018569     16.000000
  0.068087  0.093314  0.018569     16.000000
  0.080467  0.093314  0.018569     16.000000
  0.092846  0.093314  0.018569     16.000000
  0.105226  0.093314  0.018569     16.000000
  0.117605  0.093314  0.018569     16.000000
  0.018569  0.105756  0.018569      8.000000
  0.030949  0.105756  0.018569     16.000000
  0.043328  0.105756  0.018569     16.000000
  0.055708  0.105756  0.018569     16.000000
  0.068087  0.105756  0.018569     16.000000
  0.080467  0.105756  0.018569     16.000000
  0.092846  0.105756  0.018569     16.000000
  0.105226  0.105756  0.018569     16.000000
  0.117605  0.105756  0.018569     16.000000
  0.018569  0.118198  0.018569      8.000000
  0.030949  0.118198  0.018569     16.000000
  0.043328  0.118198  0.018569     16.000000
  0.055708  0.118198  0.018569     16.000000
  0.068087  0.118198  0.018569     16.000000
  0.080467  0.118198  0.018569     16.000000
  0.092846  0.118198  0.018569     16.000000
  0.105226  0.118198  0.018569     16.000000
  0.117605  0.118198  0.018569     16.000000
  0.030949  0.006221  0.030949      8.000000
  0.043328  0.006221  0.030949     16.000000
  0.055708  0.006221  0.030949     16.000000
  0.068087  0.006221  0.030949     16.000000
  0.080467  0.006221  0.030949     16.000000
  0.092846  0.006221  0.030949     16.000000
  0.105226  0.006221  0.030949     16.000000
  0.117605  0.006221  0.030949     16.000000
  0.030949  0.018663  0.030949      8.000000
  0.043328  0.018663  0.030949     16.000000
  0.055708  0.018663  0.030949     16.000000
  0.068087  0.018663  0.030949     16.000000
  0.080467  0.018663  0.030949     16.000000
  0.092846  0.018663  0.030949     16.000000
  0.105226  0.018663  0.030949     16.000000
  0.117605  0.018663  0.030949     16.000000
  0.030949  0.031105  0.030949      8.000000
  0.043328  0.031105  0.030949     16.000000
  0.055708  0.031105  0.030949     16.000000
  0.068087  0.031105  0.030949     16.000000
  0.080467  0.031105  0.030949     16.000000
  0.092846  0.031105  0.030949     16.000000
  0.105226  0.031105  0.030949     16.000000
  0.117605  0.031105  0.030949     16.000000
  0.030949  0.043547  0.030949      8.000000
  0.043328  0.043547  0.030949     16.000000
  0.055708  0.043547  0.030949     16.000000
  0.068087  0.043547  0.030949     16.000000
  0.080467  0.043547  0.030949     16.000000
  0.092846  0.043547  0.030949     16.000000
  0.105226  0.043547  0.030949     16.000000
  0.117605  0.043547  0.030949     16.000000
  0.030949  0.055988  0.030949      8.000000
  0.043328  0.055988  0.030949     16.000000
  0.055708  0.055988  0.030949     16.000000
  0.068087  0.055988  0.030949     16.000000
  0.080467  0.055988  0.030949     16.000000
  0.092846  0.055988  0.030949     16.000000
  0.105226  0.055988  0.030949     16.000000
  0.117605  0.055988  0.030949     16.000000
  0.030949  0.068430  0.030949      8.000000
  0.043328  0.068430  0.030949     16.000000
  0.055708  0.068430  0.030949     16.000000
  0.068087  0.068430  0.030949     16.000000
  0.080467  0.068430  0.030949     16.000000
  0.092846  0.068430  0.030949     16.000000
  0.105226  0.068430  0.030949     16.000000
  0.117605  0.068430  0.030949     16.000000
  0.030949  0.080872  0.030949      8.000000
  0.043328  0.080872  0.030949     16.000000
  0.055708  0.080872  0.030949     16.000000
  0.068087  0.080872  0.030949     16.000000
  0.080467  0.080872  0.030949     16.000000
  0.092846  0.080872  0.030949     16.000000
  0.105226  0.080872  0.030949     16.000000
  0.117605  0.080872  0.030949     16.000000
  0.030949  0.093314  0.030949      8.000000
  0.043328  0.093314  0.030949     16.000000
  0.055708  0.093314  0.030949     16.000000
  0.068087  0.093314  0.030949     16.000000
  0.080467  0.093314  0.030949     16.000000
  0.092846  0.093314  0.030949     16.000000
  0.105226  0.093314  0.030949     16.000000
  0.117605  0.093314  0.030949     16.000000
  0.030949  0.105756  0.030949      8.000000
  0.043328  0.105756  0.030949     16.000000
  0.055708  0.105756  0.030949     16.000000
  0.068087  0.105756  0.030949     16.000000
  0.080467  0.105756  0.030949     16.000000
  0.092846  0.105756  0.030949     16.000000
  0.105226  0.105756  0.030949     16.000000
  0.117605  0.105756  0.030949     16.000000
  0.030949  0.118198  0.030949      8.000000
  0.043328  0.118198  0.030949     16.000000
  0.055708  0.118198  0.030949     16.000000
  0.068087  0.118198  0.030949     16.000000
  0.080467  0.118198  0.030949     16.000000
  0.092846  0.118198  0.030949     16.000000
  0.105226  0.118198  0.030949     16.000000
  0.117605  0.118198  0.030949     16.000000
  0.043328  0.006221  0.043328      8.000000
  0.055708  0.006221  0.043328     16.000000
  0.068087  0.006221  0.043328     16.000000
  0.080467  0.006221  0.043328     16.000000
  0.092846  0.006221  0.043328     16.000000
  0.105226  0.006221  0.043328     16.000000
  0.117605  0.006221  0.043328     16.000000
  0.043328  0.018663  0.043328      8.000000
  0.055708  0.018663  0.043328     16.000000
  0.068087  0.018663  0.043328     16.000000
  0.080467  0.018663  0.043328     16.000000
  0.092846  0.018663  0.043328     16.000000
  0.105226  0.018663  0.043328     16.000000
  0.117605  0.018663  0.043328     16.000000
  0.043328  0.031105  0.043328      8.000000
  0.055708  0.031105  0.043328     16.000000
  0.068087  0.031105  0.043328     16.000000
  0.080467  0.031105  0.043328     16.000000
  0.092846  0.031105  0.043328     16.000000
  0.105226  0.031105  0.043328     16.000000
  0.117605  0.031105  0.043328     16.000000
  0.043328  0.043547  0.043328      8.000000
  0.055708  0.043547  0.043328     16.000000
  0.068087  0.043547  0.043328     16.000000
  0.080467  0.043547  0.043328     16.000000
  0.092846  0.043547  0.043328     16.000000
  0.105226  0.043547  0.043328     16.000000
  0.117605  0.043547  0.043328     16.000000
  0.043328  0.055988  0.043328      8.000000
  0.055708  0.055988  0.043328     16.000000
  0.068087  0.055988  0.043328     16.000000
  0.080467  0.055988  0.043328     16.000000
  0.092846  0.055988  0.043328     16.000000
  0.105226  0.055988  0.043328     16.000000
  0.117605  0.055988  0.043328     16.000000
  0.043328  0.068430  0.043328      8.000000
  0.055708  0.068430  0.043328     16.000000
  0.068087  0.068430  0.043328     16.000000
  0.080467  0.068430  0.043328     16.000000
  0.092846  0.068430  0.043328     16.000000
  0.105226  0.068430  0.043328     16.000000
  0.117605  0.068430  0.043328     16.000000
  0.043328  0.080872  0.043328      8.000000
  0.055708  0.080872  0.043328     16.000000
  0.068087  0.080872  0.043328     16.000000
  0.080467  0.080872  0.043328     16.000000
  0.092846  0.080872  0.043328     16.000000
  0.105226  0.080872  0.043328     16.000000
  0.117605  0.080872  0.043328     16.000000
  0.043328  0.093314  0.043328      8.000000
  0.055708  0.093314  0.043328     16.000000
  0.068087  0.093314  0.043328     16.000000
  0.080467  0.093314  0.043328     16.000000
  0.092846  0.093314  0.043328     16.000000
  0.105226  0.093314  0.043328     16.000000
  0.117605  0.093314  0.043328     16.000000
  0.043328  0.105756  0.043328      8.000000
  0.055708  0.105756  0.043328     16.000000
  0.068087  0.105756  0.043328     16.000000
  0.080467  0.105756  0.043328     16.000000
  0.092846  0.105756  0.043328     16.000000
  0.105226  0.105756  0.043328     16.000000
  0.117605  0.105756  0.043328     16.000000
  0.043328  0.118198  0.043328      8.000000
  0.055708  0.118198  0.043328     16.000000
  0.068087  0.118198  0.043328     16.000000
  0.080467  0.118198  0.043328     16.000000
  0.092846  0.118198  0.043328     16.000000
  0.105226  0.118198  0.043328     16.000000
  0.117605  0.118198  0.043328     16.000000
  0.055708  0.006221  0.055708      8.000000
  0.068087  0.006221  0.055708     16.000000
  0.080467  0.006221  0.055708     16.000000
  0.092846  0.006221  0.055708     16.000000
  0.105226  0.006221  0.055708     16.000000
  0.117605  0.006221  0.055708     16.000000
  0.055708  0.018663  0.055708      8.000000
  0.068087  0.018663  0.055708     16.000000
  0.080467  0.018663  0.055708     16.000000
  0.092846  0.018663  0.055708     16.000000
  0.105226  0.018663  0.055708     16.000000
  0.117605  0.018663  0.055708     16.000000
  0.055708  0.031105  0.055708      8.000000
  0.068087  0.031105  0.055708     16.000000
  0.080467  0.031105  0.055708     16.000000
  0.092846  0.031105  0.055708     16.000000
  0.105226  0.031105  0.055708     16.000000
  0.117605  0.031105  0.055708     16.000000
  0.055708  0.043547  0.055708      8.000000
  0.068087  0.043547  0.055708     16.000000
  0.080467  0.043547  0.055708     16.000000
  0.092846  0.043547  0.055708     16.000000
  0.105226  0.043547  0.055708     16.000000
  0.117605  0.043547  0.055708     16.000000
  0.055708  0.055988  0.055708      8.000000
  0.068087  0.055988  0.055708     16.000000
  0.080467  0.055988  0.055708     16.000000
  0.092846  0.055988  0.055708     16.000000
  0.105226  0.055988  0.055708     16.000000
  0.117605  0.055988  0.055708     16.000000
  0.055708  0.068430  0.055708      8.000000
  0.068087  0.068430  0.055708     16.000000
  0.080467  0.068430  0.055708     16.000000
  0.092846  0.068430  0.055708     16.000000
  0.105226  0.068430  0.055708     16.000000
  0.117605  0.068430  0.055708     16.000000
  0.055708  0.080872  0.055708      8.000000
  0.068087  0.080872  0.055708     16.000000
  0.080467  0.080872  0.055708     16.000000
  0.092846  0.080872  0.055708     16.000000
  0.105226  0.080872  0.055708     16.000000
  0.117605  0.080872  0.055708     16.000000
  0.055708  0.093314  0.055708      8.000000
  0.068087  0.093314  0.055708     16.000000
  0.080467  0.093314  0.055708     16.000000
  0.092846  0.093314  0.055708     16.000000
  0.105226  0.093314  0.055708     16.000000
  0.117605  0.093314  0.055708     16.000000
  0.055708  0.105756  0.055708      8.000000
  0.068087  0.105756  0.055708     16.000000
  0.080467  0.105756  0.055708     16.000000
  0.092846  0.105756  0.055708     16.000000
  0.105226  0.105756  0.055708     16.000000
  0.117605  0.105756  0.055708     16.000000
  0.055708  0.118198  0.055708      8.000000
  0.068087  0.118198  0.055708     16.000000
  0.080467  0.118198  0.055708     16.000000
  0.092846  0.118198  0.055708     16.000000
  0.105226  0.118198  0.055708     16.000000
  0.117605  0.118198  0.055708     16.000000
  0.068087  0.006221  0.068087      8.000000
  0.080467  0.006221  0.068087     16.000000
  0.092846  0.006221  0.068087     16.000000
  0.105226  0.006221  0.068087     16.000000
  0.117605  0.006221  0.068087     16.000000
  0.068087  0.018663  0.068087      8.000000
  0.080467  0.018663  0.068087     16.000000
  0.092846  0.018663  0.068087     16.000000
  0.105226  0.018663  0.068087     16.000000
  0.117605  0.018663  0.068087     16.000000
  0.068087  0.031105  0.068087      8.000000
  0.080467  0.031105  0.068087     16.000000
  0.092846  0.031105  0.068087     16.000000
  0.105226  0.031105  0.068087     16.000000
  0.117605  0.031105  0.068087     16.000000
  0.068087  0.043547  0.068087      8.000000
  0.080467  0.043547  0.068087     16.000000
  0.092846  0.043547  0.068087     16.000000
  0.105226  0.043547  0.068087     16.000000
  0.117605  0.043547  0.068087     16.000000
  0.068087  0.055988  0.068087      8.000000
  0.080467  0.055988  0.068087     16.000000
  0.092846  0.055988  0.068087     16.000000
  0.105226  0.055988  0.068087     16.000000
  0.117605  0.055988  0.068087     16.000000
  0.068087  0.068430  0.068087      8.000000
  0.080467  0.068430  0.068087     16.000000
  0.092846  0.068430  0.068087     16.000000
  0.105226  0.068430  0.068087     16.000000
  0.117605  0.068430  0.068087     16.000000
  0.068087  0.080872  0.068087      8.000000
  0.080467  0.080872  0.068087     16.000000
  0.092846  0.080872  0.068087     16.000000
  0.105226  0.080872  0.068087     16.000000
  0.117605  0.080872  0.068087     16.000000
  0.068087  0.093314  0.068087      8.000000
  0.080467  0.093314  0.068087     16.000000
  0.092846  0.093314  0.068087     16.000000
  0.105226  0.093314  0.068087     16.000000
  0.117605  0.093314  0.068087     16.000000
  0.068087  0.105756  0.068087      8.000000
  0.080467  0.105756  0.068087     16.000000
  0.092846  0.105756  0.068087     16.000000
  0.105226  0.105756  0.068087     16.000000
  0.117605  0.105756  0.068087     16.000000
  0.068087  0.118198  0.068087      8.000000
  0.080467  0.118198  0.068087     16.000000
  0.092846  0.118198  0.068087     16.000000
  0.105226  0.118198  0.068087     16.000000
  0.117605  0.118198  0.068087     16.000000
  0.080467  0.006221  0.080467      8.000000
  0.092846  0.006221  0.080467     16.000000
  0.105226  0.006221  0.080467     16.000000
  0.117605  0.006221  0.080467     16.000000
  0.080467  0.018663  0.080467      8.000000
  0.092846  0.018663  0.080467     16.000000
  0.105226  0.018663  0.080467     16.000000
  0.117605  0.018663  0.080467     16.000000
  0.080467  0.031105  0.080467      8.000000
  0.092846  0.031105  0.080467     16.000000
  0.105226  0.031105  0.080467     16.000000
  0.117605  0.031105  0.080467     16.000000
  0.080467  0.043547  0.080467      8.000000
  0.092846  0.043547  0.080467     16.000000
  0.105226  0.043547  0.080467     16.000000
  0.117605  0.043547  0.080467     16.000000
  0.080467  0.055988  0.080467      8.000000
  0.092846  0.055988  0.080467     16.000000
  0.105226  0.055988  0.080467     16.000000
  0.117605  0.055988  0.080467     16.000000
  0.080467  0.068430  0.080467      8.000000
  0.092846  0.068430  0.080467     16.000000
  0.105226  0.068430  0.080467     16.000000
  0.117605  0.068430  0.080467     16.000000
  0.080467  0.080872  0.080467      8.000000
  0.092846  0.080872  0.080467     16.000000
  0.105226  0.080872  0.080467     16.000000
  0.117605  0.080872  0.080467     16.000000
  0.080467  0.093314  0.080467      8.000000
  0.092846  0.093314  0.080467     16.000000
  0.105226  0.093314  0.080467     16.000000
  0.117605  0.093314  0.080467     16.000000
  0.080467  0.105756  0.080467      8.000000
  0.092846  0.105756  0.080467     16.000000
  0.105226  0.105756  0.080467     16.000000
  0.117605  0.105756  0.080467     16.000000
  0.080467  0.118198  0.080467      8.000000
  0.092846  0.118198  0.080467     16.000000
  0.105226  0.118198  0.080467     16.000000
  0.117605  0.118198  0.080467     16.000000
  0.092846  0.006221  0.092846      8.000000
  0.105226  0.006221  0.092846     16.000000
  0.117605  0.006221  0.092846     16.000000
  0.092846  0.018663  0.092846      8.000000
  0.105226  0.018663  0.092846     16.000000
  0.117605  0.018663  0.092846     16.000000
  0.092846  0.031105  0.092846      8.000000
  0.105226  0.031105  0.092846     16.000000
  0.117605  0.031105  0.092846     16.000000
  0.092846  0.043547  0.092846      8.000000
  0.105226  0.043547  0.092846     16.000000
  0.117605  0.043547  0.092846     16.000000
  0.092846  0.055988  0.092846      8.000000
  0.105226  0.055988  0.092846     16.000000
  0.117605  0.055988  0.092846     16.000000
  0.092846  0.068430  0.092846      8.000000
  0.105226  0.068430  0.092846     16.000000
  0.117605  0.068430  0.092846     16.000000
  0.092846  0.080872  0.092846      8.000000
  0.105226  0.080872  0.092846     16.000000
  0.117605  0.080872  0.092846     16.000000
  0.092846  0.093314  0.092846      8.000000
  0.105226  0.093314  0.092846     16.000000
  0.117605  0.093314  0.092846     16.000000
  0.092846  0.105756  0.092846      8.000000
  0.105226  0.105756  0.092846     16.000000
  0.117605  0.105756  0.092846     16.000000
  0.092846  0.118198  0.092846      8.000000
  0.105226  0.118198  0.092846     16.000000
  0.117605  0.118198  0.092846     16.000000
  0.105226  0.006221  0.105226      8.000000
  0.117605  0.006221  0.105226     16.000000
  0.105226  0.018663  0.105226      8.000000
  0.117605  0.018663  0.105226     16.000000
  0.105226  0.031105  0.105226      8.000000
  0.117605  0.031105  0.105226     16.000000
  0.105226  0.043547  0.105226      8.000000
  0.117605  0.043547  0.105226     16.000000
  0.105226  0.055988  0.105226      8.000000
  0.117605  0.055988  0.105226     16.000000
  0.105226  0.068430  0.105226      8.000000
  0.117605  0.068430  0.105226     16.000000
  0.105226  0.080872  0.105226      8.000000
  0.117605  0.080872  0.105226     16.000000
  0.105226  0.093314  0.105226      8.000000
  0.117605  0.093314  0.105226     16.000000
  0.105226  0.105756  0.105226      8.000000
  0.117605  0.105756  0.105226     16.000000
  0.105226  0.118198  0.105226      8.000000
  0.117605  0.118198  0.105226     16.000000
  0.117605  0.006221  0.117605      8.000000
  0.117605  0.018663  0.117605      8.000000
  0.117605  0.031105  0.117605      8.000000
  0.117605  0.043547  0.117605      8.000000
  0.117605  0.055988  0.117605      8.000000
  0.117605  0.068430  0.117605      8.000000
  0.117605  0.080872  0.117605      8.000000
  0.117605  0.093314  0.117605      8.000000
  0.117605  0.105756  0.117605      8.000000
  0.117605  0.118198  0.117605      8.000000
 


--------------------------------------------------------------------------------------------------------




 Dimension of arrays:
   k-points           NKPTS =    550   k-points in BZ     NKDIM =    550   number of bands    NBANDS=     14
   number of dos      NEDOS =    301   number of ions     NIONS =      4
   non local maximal  LDIM  =      4   non local SUM 2l+1 LMDIM =      8
   total plane-waves  NPLWV =  21952
   max r-space proj   IRMAX =   3740   max aug-charges    IRDMAX=  13230
   dimension x,y,z NGX =    28 NGY =   28 NGZ =   28
   dimension x,y,z NGXF=    56 NGYF=   56 NGZF=   56
   support grid    NGXF=    56 NGYF=   56 NGZF=   56
   ions per type =               4
   NGX,Y,Z   is equivalent  to a cutoff of  11.53, 11.58, 11.53 a.u.
   NGXF,Y,Z  is equivalent  to a cutoff of  23.05, 23.17, 23.05 a.u.

 SYSTEM =  Al fcc relaxation                       
 POSCAR =  Al4                                     

 Startparameter for this run:
   NWRITE =      2    write-flag & timer
   PREC   = accura    normal or accurate (medium, high low for compatibility)
   ISTART =      0    job   : 0-new  1-cont  2-samecut
   ICHARG =      2    charge: 1-file 2-atom 10-const
   ISPIN  =      1    spin polarized calculation?
   LNONCOLLINEAR =      F non collinear calculations
   LSORBIT =      F    spin-orbit coupling
   INIWAV =      1    electr: 0-lowe 1-rand  2-diag
   LASPH  =      F    aspherical Exc in radial PAW
 Electronic Relaxation 1
   ENCUT  =  400.0 eV  29.40 Ry    5.42 a.u.   6.59  6.55  6.59*2*pi/ulx,y,z
   ENINI  =  400.0     initial cutoff
   ENAUG  =  291.1 eV  augmentation charge cutoff
   NELM   =     60;   NELMIN=  4; NELMDL= -5     # of ELM steps 
   EDIFF  = 0.1E-05   stopping-criterion for ELM
   LREAL  =      T    real-space projection
   NLSPLINE    = F    spline interpolate recip. space projectors
   LCOMPAT=      F    compatible to vasp.4.4
   GGA_COMPAT  = T    GGA compatible to vasp.4.4-vasp.4.6
   LMAXPAW     = -100 max onsite density
   LMAXMIX     =    2 max onsite mixed and CHGCAR
   VOSKOWN=      0    Vosko Wilk Nusair interpolation
   ROPT   =   -0.00025
 Ionic relaxation
   EDIFFG = 0.1E-04   stopping-criterion for IOM
   NSW    =    100    number of steps for IOM
   NBLOCK =      1;   KBLOCK =    100    inner block; outer block 
   IBRION =      2    ionic relax: 0-MD 1-quasi-New 2-CG
   NFREE  =      1    steps in history (QN), initial steepest desc. (CG)
   ISIF   =      2    stress and relaxation
   IWAVPR =     11    prediction:  0-non 1-charg 2-wave 3-comb
   ISYM   =      2    0-nonsym 1-usesym 2-fastsym
   LCORR  =      T    Harris-Foulkes like correction to forces

   POTIM  = 0.5000    time-step for ionic-motion
   TEIN   =    0.0    initial temperature
   TEBEG  =    0.0;   TEEND  =   0.0 temperature during run
   SMASS  =  -3.00    Nose mass-parameter (am)
   estimated Nose-frequenzy (Omega)   =  0.10E-29 period in steps = 0.13E+47 mass=  -0.373E-27a.u.
   SCALEE = 1.0000    scale energy and forces
   NPACO  =    256;   APACO  = 10.0  distance and # of slots for P.C.
   PSTRESS=    0.0 pullay stress

  Mass of Ions in am
   POMASS =  26.98
  Ionic Valenz
   ZVAL   =   3.00
  Atomic Wigner-Seitz radii
   RWIGS  =  -1.00
  virtual crystal weights 
   VCA    =   1.00
   NELECT =      12.0000    total number of electrons
   NUPDOWN=      -1.0000    fix difference up-down

 DOS related values:
   EMIN   =  10.00;   EMAX   =-10.00  energy-range for DOS
   EFERMI =   0.00;   METHOD = LEGACY      
   ISMEAR =     1;   SIGMA  =   0.20  broadening in eV -4-tet -1-fermi 0-gaus

 Electronic relaxation 2 (details)
   IALGO  =     68    algorithm
   LDIAG  =      T    sub-space diagonalisation (order eigenvalues)
   LSUBROT=      F    optimize rotation matrix (better conditioning)
   TURBO    =      0    0=normal 1=particle mesh
   IRESTART =      0    0=no restart 2=restart with 2 vectors
   NREBOOT  =      0    no. of reboots
   NMIN     =      0    reboot dimension
   EREF     =   0.00    reference energy to select bands
   IMIX   =      4    mixing-type and parameters
     AMIX     =   0.40;   BMIX     =  1.00
     AMIX_MAG =   1.60;   BMIX_MAG =  1.00
     AMIN     =   0.10
     WC   =   100.;   INIMIX=   1;  MIXPRE=   1;  MAXMIX= -45

 Intra band minimization:
   WEIMIN = 0.0010     energy-eigenvalue tresh-hold
   EBREAK =  0.18E-07  absolut break condition
   DEPER  =   0.30     relativ break condition  

   TIME   =   0.40     timestep for ELM

  volume/ion in A,a.u.               =      16.39       110.60
  Fermi-wavevector in a.u.,A,eV,Ry     =   0.929529  1.756556 11.755770  0.864025
  Thomas-Fermi vector in A             =   2.055822

 Write flags
   LWAVE        =      F    write WAVECAR
   LDOWNSAMPLE  =      F    k-point downsampling of WAVECAR
   LCHARG       =      F    write CHGCAR
   LVTOT        =      F    write LOCPOT, total local potential
   LVHAR        =      F    write LOCPOT, Hartree potential only
   LELF         =      F    write electronic localiz. function (ELF)
   LORBIT       =      0    0 simple, 1 ext, 2 COOP (PROOUT), +10 PAW based schemes


 Dipole corrections
   LMONO  =      F    monopole corrections only (constant potential shift)
   LDIPOL =      F    correct potential (dipole corrections)
   IDIPOL =      0    1-x, 2-y, 3-z, 4-all directions 
   EPSILON=  1.0000000 bulk dielectric constant

 Exchange correlation treatment:
   GGA     =    --    GGA type
   LEXCH   =     8    internal setting for exchange type
   LIBXC   =     F    Libxc                    
   VOSKOWN =     0    Vosko Wilk Nusair interpolation
   LHFCALC =     F    Hartree Fock is set to
   LHFONE  =     F    Hartree Fock one center treatment
   AEXX    =    0.0000 exact exchange contribution

 Linear response parameters
   LEPSILON=     F    determine dielectric tensor
   LRPA    =     F    only Hartree local field effects (RPA)
   LNABLA  =     F    use nabla operator in PAW spheres
   LVEL    =     F    velocity operator in full k-point grid
   CSHIFT  =0.1000    complex shift for real part using Kramers Kronig
   OMEGAMAX=  -1.0    maximum frequency
   DEG_THRESHOLD= 0.2000000E-02 threshold for treating states as degnerate
   RTIME   =   -0.100 relaxation time in fs
  (WPLASMAI=    0.000 imaginary part of plasma frequency in eV, 0.658/RTIME)
   DFIELD  = 0.0000000 0.0000000 0.0000000 field for delta impulse in time

  Optional k-point grid parameters
   LKPOINTS_OPT  =     F    use optional k-point grid
   KPOINTS_OPT_MODE=     1    mode for optional k-point grid

 Orbital magnetization related:
   ORBITALMAG=     F  switch on orbital magnetization
   LCHIMAG   =     F  perturbation theory with respect to B field
   DQ        =  0.001000  dq finite difference perturbation B field
   LLRAUG    =     F  two centre corrections for induced B field
   LBONE     =     F  B-component reconstruction in AE one-centre
   LVGVCALC  =     T  calculate vGv susceptibility
   LVGVAPPL  =     F  apply vGv susceptibility instead of pGv for G=0

 Random number generation:
   RANDOM_GENERATOR = DEFAULT
   PCG_SEED         = not used


--------------------------------------------------------------------------------------------------------


 conjugate gradient relaxation of ions
 charge density and potential will be updated during run
 non-spin polarized calculation
 RMM-DIIS sequential band-by-band and
  variant of blocked Davidson during initial phase
 perform sub-space diagonalisation
    before iterative eigenvector-optimisation
 modified Broyden-mixing scheme, WC =      100.0
 initial mixing is a Kerker type mixing with AMIX =  0.4000 and BMIX =      1.0000
 Hartree-type preconditioning will be used
 using additional bands            8
 real space projection scheme for non local part
 use partial core corrections
 calculate Harris-corrections to forces   (improved forces if not selfconsistent)
 use gradient corrections 
 use of overlap-Matrix (Vanderbilt PP)
 Methfessel and Paxton  Order N= 1 SIGMA  =   0.20


--------------------------------------------------------------------------------------------------------


  energy-cutoff  :      400.00
  volume of cell :       65.56
      direct lattice vectors                 reciprocal lattice vectors
     4.038929693  0.000000000  0.000000000     0.247590346  0.000000000 -0.000000000
    -0.000000000  4.018684304  0.000000000     0.000000000  0.248837660 -0.000000000
     0.000000000  0.000000000  4.038929693     0.000000000 -0.000000000  0.247590346

  length of vectors
     4.038929693  4.018684304  4.038929693     0.247590346  0.248837660  0.247590346



 k-points in units of 2pi/SCALE and weight: Automatic kpoint scheme                 
   0.00618976  0.00622094  0.00618976       0.001
   0.01856928  0.00622094  0.00618976       0.002
   0.03094879  0.00622094  0.00618976       0.002
   0.04332831  0.00622094  0.00618976       0.002
   0.05570783  0.00622094  0.00618976       0.002
   0.06808735  0.00622094  0.00618976       0.002
   0.08046686  0.00622094  0.00618976       0.002
   0.09284638  0.00622094  0.00618976       0.002
   0.10522590  0.00622094  0.00618976       0.002
   0.11760541  0.00622094  0.00618976       0.002
   0.00618976  0.01866282  0.00618976       0.001
   0.01856928  0.01866282  0.00618976       0.002
   0.03094879  0.01866282  0.00618976       0.002
   0.04332831  0.01866282  0.00618976       0.002
   0.05570783  0.01866282  0.00618976       0.002
   0.06808735  0.01866282  0.00618976       0.002
   0.08046686  0.01866282  0.00618976       0.002
   0.09284638  0.01866282  0.00618976       0.002
   0.10522590  0.01866282  0.00618976       0.002
   0.11760541  0.01866282  0.00618976       0.002
   0.00618976  0.03110471  0.00618976       0.001
   0.01856928  0.03110471  0.00618976       0.002
   0.03094879  0.03110471  0.00618976       0.002
   0.04332831  0.03110471  0.00618976       0.002
   0.05570783  0.03110471  0.00618976       0.002
   0.06808735  0.03110471  0.00618976       0.002
   0.08046686  0.03110471  0.00618976       0.002
   0.09284638  0.03110471  0.00618976       0.002
   0.10522590  0.03110471  0.00618976       0.002
   0.11760541  0.03110471  0.00618976       0.002
   0.00618976  0.04354659  0.00618976       0.001
   0.01856928  0.04354659  0.00618976       0.002
   0.03094879  0.04354659  0.00618976       0.002
   0.04332831  0.04354659  0.00618976       0.002
   0.05570783  0.04354659  0.00618976       0.002
   0.06808735  0.04354659  0.00618976       0.002
   0.08046686  0.04354659  0.00618976       0.002
   0.09284638  0.04354659  0.00618976       0.002
   0.10522590  0.04354659  0.00618976       0.002
   0.11760541  0.04354659  0.00618976       0.002
   0.00618976  0.05598847  0.00618976       0.001
   0.01856928  0.05598847  0.00618976       0.002
   0.03094879  0.05598847  0.00618976       0.002
   0.04332831  0.05598847  0.00618976       0.002
   0.05570783  0.05598847  0.00618976       0.002
   0.06808735  0.05598847  0.00618976       0.002
   0.08046686  0.05598847  0.00618976       0.002
   0.09284638  0.05598847  0.00618976       0.002
   0.10522590  0.05598847  0.00618976       0.002
   0.11760541  0.05598847  0.00618976       0.002
   0.00618976  0.06843036  0.00618976       0.001
   0.01856928  0.06843036  0.00618976       0.002
   0.03094879  0.06843036  0.00618976       0.002
   0.04332831  0.06843036  0.00618976       0.002
   0.05570783  0.06843036  0.00618976       0.002
   0.06808735  0.06843036  0.00618976       0.002
   0.08046686  0.06843036  0.00618976       0.002
   0.09284638  0.06843036  0.00618976       0.002
   0.10522590  0.06843036  0.00618976       0.002
   0.11760541  0.06843036  0.00618976       0.002
   0.00618976  0.08087224  0.00618976       0.001
   0.01856928  0.08087224  0.00618976       0.002
   0.03094879  0.08087224  0.00618976       0.002
   0.04332831  0.08087224  0.00618976       0.002
   0.05570783  0.08087224  0.00618976       0.002
   0.06808735  0.08087224  0.00618976       0.002
   0.08046686  0.08087224  0.00618976       0.002
   0.09284638  0.08087224  0.00618976       0.002
   0.10522590  0.08087224  0.00618976       0.002
   0.11760541  0.08087224  0.00618976       0.002
   0.00618976  0.09331412  0.00618976       0.001
   0.01856928  0.09331412  0.00618976       0.002
   0.03094879  0.09331412  0.00618976       0.002
   0.04332831  0.09331412  0.00618976       0.002
   0.05570783  0.09331412  0.00618976       0.002
   0.06808735  0.09331412  0.00618976       0.002
   0.08046686  0.09331412  0.00618976       0.002
   0.09284638  0.09331412  0.00618976       0.002
   0.10522590  0.09331412  0.00618976       0.002
   0.11760541  0.09331412  0.00618976       0.002
   0.00618976  0.10575601  0.00618976       0.001
   0.01856928  0.10575601  0.00618976       0.002
   0.03094879  0.10575601  0.00618976       0.002
   0.04332831  0.10575601  0.00618976       0.002
   0.05570783  0.10575601  0.00618976       0.002
   0.06808735  0.10575601  0.00618976       0.002
   0.08046686  0.10575601  0.00618976       0.002
   0.09284638  0.10575601  0.00618976       0.002
   0.10522590  0.10575601  0.00618976       0.002
   0.11760541  0.10575601  0.00618976       0.002
   0.00618976  0.11819789  0.00618976       0.001
   0.01856928  0.11819789  0.00618976       0.002
   0.03094879  0.11819789  0.00618976       0.002
   0.04332831  0.11819789  0.00618976       0.002
   0.05570783  0.11819789  0.00618976       0.002
   0.06808735  0.11819789  0.00618976       0.002
   0.08046686  0.11819789  0.00618976       0.002
   0.09284638  0.11819789  0.00618976       0.002
   0.10522590  0.11819789  0.00618976       0.002
   0.11760541  0.11819789  0.00618976       0.002
   0.01856928  0.00622094  0.01856928       0.001
   0.03094879  0.00622094  0.01856928       0.002
   0.04332831  0.00622094  0.01856928       0.002
   0.05570783  0.00622094  0.01856928       0.002
   0.06808735  0.00622094  0.01856928       0.002
   0.08046686  0.00622094  0.01856928       0.002
   0.09284638  0.00622094  0.01856928       0.002
   0.10522590  0.00622094  0.01856928       0.002
   0.11760541  0.00622094  0.01856928       0.002
   0.01856928  0.01866282  0.01856928       0.001
   0.03094879  0.01866282  0.01856928       0.002
   0.04332831  0.01866282  0.01856928       0.002
   0.05570783  0.01866282  0.01856928       0.002
   0.06808735  0.01866282  0.01856928       0.002
   0.08046686  0.01866282  0.01856928       0.002
   0.09284638  0.01866282  0.01856928       0.002
   0.10522590  0.01866282  0.01856928       0.002
   0.11760541  0.01866282  0.01856928       0.002
   0.01856928  0.03110471  0.01856928       0.001
   0.03094879  0.03110471  0.01856928       0.002
   0.04332831  0.03110471  0.01856928       0.002
   0.05570783  0.03110471  0.01856928       0.002
   0.06808735  0.03110471  0.01856928       0.002
   0.08046686  0.03110471  0.01856928       0.002
   0.09284638  0.03110471  0.01856928       0.002
   0.10522590  0.03110471  0.01856928       0.002
   0.11760541  0.03110471  0.01856928       0.002
   0.01856928  0.04354659  0.01856928       0.001
   0.03094879  0.04354659  0.01856928       0.002
   0.04332831  0.04354659  0.01856928       0.002
   0.05570783  0.04354659  0.01856928       0.002
   0.06808735  0.04354659  0.01856928       0.002
   0.08046686  0.04354659  0.01856928       0.002
   0.09284638  0.04354659  0.01856928       0.002
   0.10522590  0.04354659  0.01856928       0.002
   0.11760541  0.04354659  0.01856928       0.002
   0.01856928  0.05598847  0.01856928       0.001
   0.03094879  0.05598847  0.01856928       0.002
   0.04332831  0.05598847  0.01856928       0.002
   0.05570783  0.05598847  0.01856928       0.002
   0.06808735  0.05598847  0.01856928       0.002
   0.08046686  0.05598847  0.01856928       0.002
   0.09284638  0.05598847  0.01856928       0.002
   0.10522590  0.05598847  0.01856928       0.002
   0.11760541  0.05598847  0.01856928       0.002
   0.01856928  0.06843036  0.01856928       0.001
   0.03094879  0.06843036  0.01856928       0.002
   0.04332831  0.06843036  0.01856928       0.002
   0.05570783  0.06843036  0.01856928       0.002
   0.06808735  0.06843036  0.01856928       0.002
   0.08046686  0.06843036  0.01856928       0.002
   0.09284638  0.06843036  0.01856928       0.002
   0.10522590  0.06843036  0.01856928       0.002
   0.11760541  0.06843036  0.01856928       0.002
   0.01856928  0.08087224  0.01856928       0.001
   0.03094879  0.08087224  0.01856928       0.002
   0.04332831  0.08087224  0.01856928       0.002
   0.05570783  0.08087224  0.01856928       0.002
   0.06808735  0.08087224  0.01856928       0.002
   0.08046686  0.08087224  0.01856928       0.002
   0.09284638  0.08087224  0.01856928       0.002
   0.10522590  0.08087224  0.01856928       0.002
   0.11760541  0.08087224  0.01856928       0.002
   0.01856928  0.09331412  0.01856928       0.001
   0.03094879  0.09331412  0.01856928       0.002
   0.04332831  0.09331412  0.01856928       0.002
   0.05570783  0.09331412  0.01856928       0.002
   0.06808735  0.09331412  0.01856928       0.002
   0.08046686  0.09331412  0.01856928       0.002
   0.09284638  0.09331412  0.01856928       0.002
   0.10522590  0.09331412  0.01856928       0.002
   0.11760541  0.09331412  0.01856928       0.002
   0.01856928  0.10575601  0.01856928       0.001
   0.03094879  0.10575601  0.01856928       0.002
   0.04332831  0.10575601  0.01856928       0.002
   0.05570783  0.10575601  0.01856928       0.002
   0.06808735  0.10575601  0.01856928       0.002
   0.08046686  0.10575601  0.01856928       0.002
   0.09284638  0.10575601  0.01856928       0.002
   0.10522590  0.10575601  0.01856928       0.002
   0.11760541  0.10575601  0.01856928       0.002
   0.01856928  0.11819789  0.01856928       0.001
   0.03094879  0.11819789  0.01856928       0.002
   0.04332831  0.11819789  0.01856928       0.002
   0.05570783  0.11819789  0.01856928       0.002
   0.06808735  0.11819789  0.01856928       0.002
   0.08046686  0.11819789  0.01856928       0.002
[...]

 k-point   529 :       0.4250    0.2250    0.4250
  band No.  band energies     occupation 
      1       0.5835      2.00000
      2       1.9028      2.00000
      3       1.9028      2.00000
      4       3.2077      2.00000
      5       5.4191      2.00000
      6       6.6969      2.00000
      7       6.6969      2.00000
      8       7.9704      1.81906
      9      13.2717     -0.00000
     10      14.4651      0.00000
     11      14.4651      0.00000
     12      15.6611      0.00000
     13      16.3731      0.00000
     14      16.3735      0.00000

 k-point   530 :       0.4750    0.2250    0.4250
  band No.  band energies     occupation 
      1       0.9808      2.00000
      2       1.4207      2.00000
      3       2.2962      2.00000
      4       2.7315      2.00000
      5       5.8025      2.00000
      6       6.2288      2.00000
      7       7.0799      2.00000
      8       7.5045      2.00031
      9      13.6367      0.00000
     10      14.0360      0.00000
     11      14.8326      0.00000
     12      15.2317      0.00000
     13      16.6640      0.00000
     14      16.8965      0.00000

 k-point   531 :       0.4250    0.2750    0.4250
  band No.  band energies     occupation 
      1       0.8067      2.00000
      2       2.1237      2.00000
      3       2.1237      2.00000
      4       3.4232      2.00000
      5       4.7792      2.00000
      6       6.0583      2.00000
      7       6.0583      2.00000
      8       7.3359      2.00000
      9      14.2917      0.00000
     10      15.4461      0.00000
     11      15.4461      0.00000
     12      16.5741      0.00000
     13      16.5742      0.00000
     14      16.6190      0.00000

 k-point   532 :       0.4750    0.2750    0.4250
  band No.  band energies     occupation 
      1       1.2033      2.00000
      2       1.6425      2.00000
      3       2.5162      2.00000
      4       2.9501      2.00000
      5       5.1616      2.00000
      6       5.5887      2.00000
      7       6.4424      2.00000
      8       6.8685      2.00000
      9      14.6500      0.00000
     10      15.0379      0.00000
     11      15.8126      0.00000
     12      16.2039      0.00000
     13      16.8619      0.00000
     14      17.0935      0.00000

 k-point   533 :       0.4250    0.3250    0.4250
  band No.  band energies     occupation 
      1       1.0740      2.00000
      2       2.3882      2.00000
      3       2.3882      2.00000
      4       3.6672      2.00000
      5       4.1920      2.00000
      6       5.4573      2.00000
      7       5.4573      2.00000
      8       6.7385      2.00000
      9      15.3417      0.00000
     10      16.4112      0.00000
     11      16.4112      0.00000
     12      16.8270      0.00000
     13      16.8271      0.00000
     14      17.2761      0.00000

 k-point   534 :       0.4750    0.3250    0.4250
  band No.  band energies     occupation 
      1       1.4698      2.00000
      2       1.9081      2.00000
      3       2.7793      2.00000
      4       3.2101      2.00000
      5       4.5606      2.00000
      6       4.9869      2.00000
      7       5.8424      2.00000
      8       6.2697      2.00000
      9      15.6894      0.00000
     10      16.0570      0.00000
     11      16.7917      0.00000
     12      17.0991      0.00000
     13      17.1731      0.00000
     14      17.3294      0.00000

 k-point   535 :       0.4250    0.3750    0.4250
  band No.  band energies     occupation 
      1       1.3851      2.00000
      2       2.6955      2.00000
      3       2.6955      2.00000
      4       3.5602      2.00000
      5       4.0388      2.00000
      6       4.8966      2.00000
      7       4.8966      2.00000
      8       6.1804      2.00000
      9      16.4127      0.00000
     10      17.0308      0.00000
     11      17.0309      0.00000
     12      17.3874      0.00000
     13      17.3883      0.00000
     14      17.5522      0.00000

 k-point   536 :       0.4750    0.3750    0.4250
  band No.  band energies     occupation 
      1       1.7801      2.00000
      2       2.2172      2.00000
      3       3.0836      2.00000
      4       3.4990      2.00000
      5       4.0137      2.00000
      6       4.4269      2.00000
      7       5.2821      2.00000
      8       5.7103      2.00000
      9      16.7419      0.00000
     10      17.0572      0.00000
     11      17.3860      0.00000
     12      17.6047      0.00000
     13      17.7061      0.00000
     14      18.0948      0.00000

 k-point   537 :       0.4250    0.4250    0.4250
  band No.  band energies     occupation 
      1       1.7398      2.00000
      2       3.0438      2.00000
      3       3.0438      2.00000
      4       3.0566      2.00000
      5       4.3662      2.00000
      6       4.3789      2.00000
      7       4.3789      2.00000
      8       5.6629      2.00000
      9      17.3448      0.00000
     10      17.3448      0.00000
     11      17.4901      0.00000
     12      17.8670      0.00000
     13      17.9542      0.00000
     14      17.9544      0.00000

 k-point   538 :       0.4750    0.4250    0.4250
  band No.  band energies     occupation 
      1       2.1335      2.00000
      2       2.5689      2.00000
      3       3.4166      2.00000
      4       3.4280      2.00000
      5       3.9108      2.00000
      6       3.9222      2.00000
      7       4.7631      2.00000
      8       5.1918      2.00000
      9      17.6420      0.00000
     10      17.7678      0.00000
     11      17.9314      0.00000
     12      18.0472      0.00000
     13      18.3061      0.00000
     14      18.4246      0.00000

 k-point   539 :       0.4250    0.4750    0.4250
  band No.  band energies     occupation 
      1       2.1375      2.00000
      2       2.5772      2.00000
      3       3.4200      2.00000
      4       3.4200      2.00000
      5       3.9179      2.00000
      6       3.9179      2.00000
      7       4.7542      2.00000
      8       5.1871      2.00000
      9      17.6467      0.00000
     10      17.6467      0.00000
     11      17.9512      0.00000
     12      17.9532      0.00000
     13      18.2260      0.00000
     14      18.5821      0.00000

 k-point   540 :       0.4750    0.4750    0.4250
  band No.  band energies     occupation 
      1       2.5294      2.00000
      2       2.9614      2.00000
      3       2.9657      2.00000
      4       3.3812      2.00000
      5       3.8704      2.00000
      6       4.2838      2.00000
      7       4.2880      2.00000
      8       4.7156      2.00000
      9      17.9696      0.00000
     10      18.2387      0.00000
     11      18.2619      0.00000
     12      18.5993      0.00000
     13      18.6601      0.00000
     14      18.6627      0.00000

 k-point   541 :       0.4750    0.0250    0.4750
  band No.  band energies     occupation 
      1       0.9321      2.00000
      2       1.3722      2.00000
      3       1.3722      2.00000
      4       1.8109      2.00000
      5       8.8297     -0.00000
      6       9.2476     -0.00000
      7       9.2476     -0.00000
      8       9.6654     -0.00000
      9      10.6063     -0.00000
     10      11.0244     -0.00000
     11      11.0244     -0.00000
     12      11.4411     -0.00000
     13      17.1772      0.00000
     14      17.2492      0.00000

 k-point   542 :       0.4750    0.0750    0.4750
  band No.  band energies     occupation 
      1       0.9766      2.00000
      2       1.4166      2.00000
      3       1.4166      2.00000
      4       1.8552      2.00000
      5       8.2561     -0.00423
      6       8.6765     -0.00024
      7       8.6765     -0.00024
      8       9.0965     -0.00000
      9      11.2560     -0.00000
     10      11.6709     -0.00000
     11      11.6709     -0.00000
     12      12.0847     -0.00000
     13      17.2140      0.00000
     14      17.2892      0.00000

 k-point   543 :       0.4750    0.1250    0.4750
  band No.  band energies     occupation 
      1       1.0656      2.00000
      2       1.5054      2.00000
      3       1.5054      2.00000
      4       1.9436      2.00000
      5       7.5596      2.00126
      6       7.9822      1.75987
      7       7.9822      1.75987
      8       8.4042     -0.04688
      9      12.1044     -0.00000
     10      12.5154     -0.00000
     11      12.5154     -0.00000
     12      12.9256     -0.00000
     13      17.2826      0.00000
     14      17.3677      0.00000

 k-point   544 :       0.4750    0.1750    0.4750
  band No.  band energies     occupation 
      1       1.1992      2.00000
      2       1.6384      2.00000
      3       1.6384      2.00000
      4       2.0762      2.00000
      5       6.8606      2.00000
      6       7.2850      2.00000
      7       7.2850      2.00000
      8       7.7088      2.02278
      9      13.0296     -0.00000
     10      13.4359     -0.00000
     11      13.4359     -0.00000
     12      13.8415      0.00000
     13      17.3991      0.00000
     14      17.4856      0.00000

 k-point   545 :       0.4750    0.2250    0.4750
  band No.  band energies     occupation 
      1       1.3769      2.00000
      2       1.8156      2.00000
      3       1.8156      2.00000
      4       2.2527      2.00000
      5       6.1864      2.00000
      6       6.6124      2.00000
      7       6.6124      2.00000
      8       7.0378      2.00000
      9      14.0024      0.00000
     10      14.4021      0.00000
     11      14.4021      0.00000
     12      14.8015      0.00000
     13      17.5447      0.00000
     14      17.6426      0.00000

 k-point   546 :       0.4750    0.2750    0.4750
  band No.  band energies     occupation 
      1       1.5988      2.00000
      2       2.0367      2.00000
      3       2.0367      2.00000
      4       2.4729      2.00000
      5       5.5461      2.00000
      6       5.9733      2.00000
      7       5.9733      2.00000
      8       6.4001      2.00000
      9      15.0096      0.00000
     10      15.3994      0.00000
     11      15.3994      0.00000
     12      15.7897      0.00000
     13      17.7461      0.00000
     14      17.8380      0.00000

 k-point   547 :       0.4750    0.3250    0.4750
  band No.  band energies     occupation 
      1       1.8645      2.00000
      2       2.3013      2.00000
      3       2.3013      2.00000
      4       2.7361      2.00000
      5       4.9440      2.00000
      6       5.3720      2.00000
      7       5.3720      2.00000
      8       5.7999      2.00000
      9      16.0407      0.00000
     10      16.4139      0.00000
     11      16.4139      0.00000
     12      16.7901      0.00000
     13      17.9811      0.00000
     14      18.0709      0.00000

 k-point   548 :       0.4750    0.3750    0.4750
  band No.  band energies     occupation 
      1       2.1736      2.00000
      2       2.6089      2.00000
      3       2.6089      2.00000
      4       3.0405      2.00000
      5       4.3837      2.00000
      6       4.8109      2.00000
      7       4.8109      2.00000
      8       5.2394      2.00000
      9      17.0810      0.00000
     10      17.4220      0.00000
     11      17.4221      0.00000
     12      17.7760      0.00000
     13      18.2630      0.00000
     14      18.3391      0.00000

 k-point   549 :       0.4750    0.4250    0.4750
  band No.  band energies     occupation 
      1       2.5255      2.00000
      2       2.9575      2.00000
      3       2.9575      2.00000
      4       3.3740      2.00000
      5       3.8785      2.00000
      6       4.2927      2.00000
      7       4.2927      2.00000
      8       4.7203      2.00000
      9      18.1040      0.00000
     10      18.3655      0.00000
     11      18.3704      0.00000
     12      18.5877      0.00000
     13      18.6376      0.00000
     14      18.6792      0.00000

 k-point   550 :       0.4750    0.4750    0.4750
  band No.  band energies     occupation 
      1       2.9182      2.00000
      2       3.3347      2.00000
      3       3.3347      2.00000
      4       3.3385      2.00000
      5       3.8268      2.00000
      6       3.8306      2.00000
      7       3.8306      2.00000
      8       4.2449      2.00000
      9      18.9267      0.00000
     10      18.9300      0.00000
     11      18.9342      0.00000
     12      19.0141      0.00000
     13      19.0261      0.00000
     14      19.0746      0.00000


--------------------------------------------------------------------------------------------------------


 soft charge-density along one line, spin component           1
         0         1         2         3         4         5         6         7         8         9
 total charge-density along one line

 pseudopotential strength for first ion, spin component:           1
  8.442  14.387   0.000   0.000   0.000   0.000   0.000   0.000
 14.387  24.520   0.000   0.000   0.000   0.000   0.000   0.000
  0.000   0.000   1.988   0.000   0.000   5.731   0.000   0.000
  0.000   0.000   0.000   1.988   0.000   0.000   5.731   0.000
  0.000   0.000   0.000   0.000   1.988   0.000   0.000   5.731
  0.000   0.000   5.731   0.000   0.000  16.436   0.000   0.000
  0.000   0.000   0.000   5.731   0.000   0.000  16.436   0.000
  0.000   0.000   0.000   0.000   5.731   0.000   0.000  16.436
 total augmentation occupancy for first ion, spin component:           1
  3.373  -0.834   0.000   0.000  -0.000   0.000  -0.000   0.000
 -0.834   0.274  -0.000   0.000   0.000  -0.000   0.000  -0.000
 -0.000  -0.000   1.123   0.000  -0.000  -0.073  -0.000   0.000
  0.000   0.000   0.000   1.119   0.000  -0.000  -0.073  -0.000
 -0.000   0.000  -0.000   0.000   1.119   0.000  -0.000  -0.073
  0.000   0.000  -0.073  -0.000   0.000   0.005   0.000  -0.000
 -0.000   0.000  -0.000  -0.073  -0.000   0.000   0.005   0.000
  0.000  -0.000   0.000  -0.000  -0.073  -0.000   0.000   0.005


------------------------ aborting loop because EDIFF is reached ----------------------------------------


    CHARGE:  cpu time      0.8077: real time      0.4051
    FORLOC:  cpu time      0.0005: real time      0.0005
    FORNL :  cpu time      5.8055: real time      3.0633
    STRESS:  cpu time     17.2447: real time      9.0432
    FORCOR:  cpu time      0.0327: real time      0.0167
    FORHAR:  cpu time      0.0089: real time      0.0049
    MIXING:  cpu time      0.0048: real time      0.0008
    OFIELD:  cpu time      0.0000: real time      0.0000

  FORCE on cell =-STRESS in cart. coord.  units (eV):
  Direction    XX          YY          ZZ          XY          YZ          ZX
  --------------------------------------------------------------------------------------
  Alpha Z    -0.81976    -0.81976    -0.81976
  Ewald     -98.26321   -98.19796   -98.26321    -0.00000     0.00000     0.00000
  Hartree     0.14305     0.13609     0.14305    -0.00000    -0.00000    -0.00000
  E(xc)     -34.33130   -34.33876   -34.33130     0.00000    -0.00000    -0.00000
  Local       1.52666     1.45671     1.52666    -0.00000    -0.00000     0.00000
  n-local    74.78173    75.79535    76.62507     0.34686     0.86837     0.60252
  augment    -4.11073    -4.11741    -4.11073     0.00000    -0.00000     0.00000
  Kinetic    57.94627    60.39644    62.56629     0.34426    -6.28824    -2.79472
  Fock        0.00000     0.00000     0.00000     0.00000     0.00000     0.00000
  -------------------------------------------------------------------------------------
  Total       0.10438     0.31069     0.10438    -0.00000    -0.00000     0.00000
  in kB       2.55107     7.59322     2.55107    -0.00000    -0.00000     0.00000
  external pressure =        4.23 kB  Pullay stress =        0.00 kB


 VOLUME and BASIS-vectors are now :
 -----------------------------------------------------------------------------
  energy-cutoff  :      400.00
  volume of cell :       65.56
      direct lattice vectors                 reciprocal lattice vectors
     4.038929693  0.000000000  0.000000000     0.247590346  0.000000000 -0.000000000
    -0.000000000  4.018684304  0.000000000     0.000000000  0.248837660 -0.000000000
     0.000000000  0.000000000  4.038929693     0.000000000 -0.000000000  0.247590346

  length of vectors
     4.038929693  4.018684304  4.038929693     0.247590346  0.248837660  0.247590346


 FORCES acting on ions
    electron-ion (+dipol)            ewald-force                    non-local-force                 convergence-correction
 -----------------------------------------------------------------------------------------------
   -.292E-14 -.162E-14 -.895E-15   -.280E-15 -.286E-15 -.260E-15   -.162E-24 0.466E-25 0.248E-25   0.577E-16 -.226E-16 -.129E-15
   -.248E-14 -.464E-14 -.470E-14   -.247E-15 0.455E-17 0.842E-15   -.222E-25 0.270E-24 0.511E-25   0.593E-16 0.472E-16 0.136E-15
   -.389E-14 -.192E-14 -.411E-13   0.218E-15 0.571E-16 -.156E-15   0.440E-25 -.143E-24 0.328E-25   -.334E-16 -.259E-16 0.162E-15
   -.422E-14 -.103E-13 0.157E-13   0.251E-15 0.347E-15 -.417E-15   0.332E-25 0.797E-25 -.513E-25   -.328E-16 0.664E-16 -.136E-15
 -----------------------------------------------------------------------------------------------
   -.135E-13 -.185E-13 -.310E-13   -.573E-16 0.123E-15 0.959E-17   -.107E-24 0.254E-24 0.573E-25   0.509E-16 0.651E-16 0.340E-16


 POSITION                                       TOTAL-FORCE (eV/Angst)
 -----------------------------------------------------------------------------------
      0.00000      0.00000      0.00000         0.000000     -0.000000      0.000000
      0.00000      2.00934      2.01946        -0.000000      0.000000     -0.000000
      2.01946      0.00000      2.01946        -0.000000     -0.000000     -0.000000
      2.01946      2.00934      0.00000         0.000000      0.000000      0.000000
 -----------------------------------------------------------------------------------
    total drift:                               -0.000000     -0.000000     -0.000000


--------------------------------------------------------------------------------------------------------



  FREE ENERGIE OF THE ION-ELECTRON SYSTEM (eV)
  ---------------------------------------------------
  free  energy   TOTEN  =       -14.98633734 eV

  energy  without entropy=      -14.98853819  energy(sigma->0) =      -14.98707095



--------------------------------------------------------------------------------------------------------


    POTLOK:  cpu time      0.0406: real time      0.0207


--------------------------------------------------------------------------------------------------------




--------------------------------------------------------------------------------------------------------


  
 reached required accuracy - stopping structural energy minimisation
     LOOP+:  cpu time    303.9064: real time    155.6081
    4ORBIT:  cpu time      0.0000: real time      0.0000

 total amount of memory used by VASP MPI-rank0    44439. kBytes
=======================================================================

   base      :      30000. kBytes
   nonlr-proj:       1301. kBytes
   fftplans  :        531. kBytes
   grid      :       1507. kBytes
   one-center:         12. kBytes
   wavefun   :      11088. kBytes

  
  
 General timing and accounting informations for this job:
 ========================================================
  
                  Total CPU time used (sec):      308.967
                            User time (sec):      305.053
                          System time (sec):        3.914
                         Elapsed time (sec):      159.484
  
                   Maximum memory used (kb):       79968.
                   Average memory used (kb):          N/A
  
                          Minor page faults:        57608
                          Major page faults:           14
                 Voluntary context switches:         1929
