<?xml version="1.0" encoding="ISO-8859-1"?>
<modeling>
 <generator>
  <i name="program" type="string">vasp </i>
  <i name="version" type="string">6.4.2  </i>
  <i name="subversion" type="string">20Jul23 (build Apr 22 2024 22:35:45) complex                          parallel </i>
  <i name="platform" type="string">LinuxGNU </i>
  <i name="date" type="string">2024 05 26 </i>
  <i name="time" type="string">16:17:02 </i>
 </generator>
 <incar>
  <i type="string" name="SYSTEM">Al fcc relaxation</i>
  <i type="string" name="PREC">Accurate</i>
  <i type="string" name="ALGO">Fast</i>
  <i type="int" name="NELM">    60</i>
  <i type="int" name="NELMIN">     4</i>
  <i type="int" name="IBRION">     2</i>
  <i name="EDIFF">      0.00000100</i>
  <i type="int" name="NSW">   100</i>
  <i type="int" name="ISIF">     2</i>
  <i name="ENCUT">    400.00000000</i>
  <i type="string" name="LREAL">Auto</i>
  <i type="int" name="ISMEAR">     1</i>
  <i name="SIGMA">      0.20000000</i>
  <i name="KSPACING">      0.08000000</i>
  <i type="logical" name="LWAVE"> F  </i>
  <i type="logical" name="LCHARG"> F  </i>
 </incar>
 <primitive_cell>
  <structure name="primitive_cell" >
   <crystal>
    <varray name="basis" >
     <v>       0.00000000      -2.00934215       2.01946485 </v>
     <v>       0.00000000      -2.00934215      -2.01946485 </v>
     <v>       2.01946485       2.00934215      -0.00000000 </v>
    </varray>
    <i name="volume">     16.38915211 </i>
    <varray name="rec_basis" >
     <v>       0.24759035      -0.24883766       0.24759035 </v>
     <v>       0.24759035      -0.24883766      -0.24759035 </v>
     <v>       0.49518069       0.00000000      -0.00000000 </v>
    </varray>
   </crystal>
   <varray name="positions" >
    <v>       0.00000000       0.00000000       0.00000000 </v>
   </varray>
  </structure>
  <varray name="primitive_index" >
   <v type="int" >        1 </v>
  </varray>
 </primitive_cell>
 <kpoints>
  <generation param="Monkhorst-Pack">
   <v type="int" name="divisions">      20       20       20 </v>
   <v name="usershift">      0.00000000       0.00000000       0.00000000 </v>
   <v name="genvec1">      0.05000000      -0.00000000       0.00000000 </v>
   <v name="genvec2">      0.00000000       0.05000000       0.00000000 </v>
   <v name="genvec3">      0.00000000       0.00000000       0.05000000 </v>
   <v name="shift">      0.50000000       0.50000000       0.50000000 </v>
  </generation>
  <varray name="kpointlist" >
   <v>       0.02500000       0.02500000       0.02500000 </v>
   <v>       0.07500000       0.02500000       0.02500000 </v>
   <v>       0.12500000       0.02500000       0.02500000 </v>
   <v>       0.17500000       0.02500000       0.02500000 </v>
   <v>       0.22500000       0.02500000       0.02500000 </v>
   <v>       0.27500000       0.02500000       0.02500000 </v>
   <v>       0.32500000       0.02500000       0.02500000 </v>
   <v>       0.37500000       0.02500000       0.02500000 </v>
   <v>       0.42500000       0.02500000       0.02500000 </v>
   <v>       0.47500000       0.02500000       0.02500000 </v>
   <v>       0.02500000       0.07500000       0.02500000 </v>
   <v>       0.07500000       0.07500000       0.02500000 </v>
   <v>       0.12500000       0.07500000       0.02500000 </v>
   <v>       0.17500000       0.07500000       0.02500000 </v>
   <v>       0.22500000       0.07500000       0.02500000 </v>
   <v>       0.27500000       0.07500000       0.02500000 </v>
   <v>       0.32500000       0.07500000       0.02500000 </v>
   <v>       0.37500000       0.07500000       0.02500000 </v>
   <v>       0.42500000       0.07500000       0.02500000 </v>
   <v>       0.47500000       0.07500000       0.02500000 </v>
   <v>       0.02500000       0.12500000       0.02500000 </v>
   <v>       0.07500000       0.12500000       0.02500000 </v>
   <v>       0.12500000       0.12500000       0.02500000 </v>
   <v>       0.17500000       0.12500000       0.02500000 </v>
   <v>       0.22500000       0.12500000       0.02500000 </v>
   <v>       0.27500000       0.12500000       0.02500000 </v>
   <v>       0.32500000       0.12500000       0.02500000 </v>
   <v>       0.37500000       0.12500000       0.02500000 </v>
   <v>       0.42500000       0.12500000       0.02500000 </v>
   <v>       0.47500000       0.12500000       0.02500000 </v>
   <v>       0.02500000       0.17500000       0.02500000 </v>
   <v>       0.07500000       0.17500000       0.02500000 </v>
   <v>       0.12500000       0.17500000       0.02500000 </v>
   <v>       0.17500000       0.17500000       0.02500000 </v>
   <v>       0.22500000       0.17500000       0.02500000 </v>
   <v>       0.27500000       0.17500000       0.02500000 </v>
   <v>       0.32500000       0.17500000       0.02500000 </v>
   <v>       0.37500000       0.17500000       0.02500000 </v>
   <v>       0.42500000       0.17500000       0.02500000 </v>
   <v>       0.47500000       0.17500000       0.02500000 </v>
   <v>       0.02500000       0.22500000       0.02500000 </v>
   <v>       0.07500000       0.22500000       0.02500000 </v>
   <v>       0.12500000       0.22500000       0.02500000 </v>
   <v>       0.17500000       0.22500000       0.02500000 </v>
   <v>       0.22500000       0.22500000       0.02500000 </v>
   <v>       0.27500000       0.22500000       0.02500000 </v>
   <v>       0.32500000       0.22500000       0.02500000 </v>
   <v>       0.37500000       0.22500000       0.02500000 </v>
   <v>       0.42500000       0.22500000       0.02500000 </v>
   <v>       0.47500000       0.22500000       0.02500000 </v>
   <v>       0.02500000       0.27500000       0.02500000 </v>
   <v>       0.07500000       0.27500000       0.02500000 </v>
   <v>       0.12500000       0.27500000       0.02500000 </v>
   <v>       0.17500000       0.27500000       0.02500000 </v>
   <v>       0.22500000       0.27500000       0.02500000 </v>
   <v>       0.27500000       0.27500000       0.02500000 </v>
   <v>       0.32500000       0.27500000       0.02500000 </v>
   <v>       0.37500000       0.27500000       0.02500000 </v>
   <v>       0.42500000       0.27500000       0.02500000 </v>
   <v>       0.47500000       0.27500000       0.02500000 </v>
   <v>       0.02500000       0.32500000       0.02500000 </v>
   <v>       0.07500000       0.32500000       0.02500000 </v>
   <v>       0.12500000       0.32500000       0.02500000 </v>
   <v>       0.17500000       0.32500000       0.02500000 </v>
   <v>       0.22500000       0.32500000       0.02500000 </v>
   <v>       0.27500000       0.32500000       0.02500000 </v>
   <v>       0.32500000       0.32500000       0.02500000 </v>
   <v>       0.37500000       0.32500000       0.02500000 </v>
   <v>       0.42500000       0.32500000       0.02500000 </v>
   <v>       0.47500000       0.32500000       0.02500000 </v>
   <v>       0.02500000       0.37500000       0.02500000 </v>
   <v>       0.07500000       0.37500000       0.02500000 </v>
   <v>       0.12500000       0.37500000       0.02500000 </v>
   <v>       0.17500000       0.37500000       0.02500000 </v>
   <v>       0.22500000       0.37500000       0.02500000 </v>
   <v>       0.27500000       0.37500000       0.02500000 </v>
   <v>       0.32500000       0.37500000       0.02500000 </v>
   <v>       0.37500000       0.37500000       0.02500000 </v>
   <v>       0.42500000       0.37500000       0.02500000 </v>
   <v>       0.47500000       0.37500000       0.02500000 </v>
   <v>       0.02500000       0.42500000       0.02500000 </v>
   <v>       0.07500000       0.42500000       0.02500000 </v>
   <v>       0.12500000       0.42500000       0.02500000 </v>
   <v>       0.17500000       0.42500000       0.02500000 </v>
   <v>       0.22500000       0.42500000       0.02500000 </v>
   <v>       0.27500000       0.42500000       0.02500000 </v>
   <v>       0.32500000       0.42500000       0.02500000 </v>
   <v>       0.37500000       0.42500000       0.02500000 </v>
   <v>       0.42500000       0.42500000       0.02500000 </v>
   <v>       0.47500000       0.42500000       0.02500000 </v>
   <v>       0.02500000       0.47500000       0.02500000 </v>
   <v>       0.07500000       0.47500000       0.02500000 </v>
   <v>       0.12500000       0.47500000       0.02500000 </v>
   <v>       0.17500000       0.47500000       0.02500000 </v>
   <v>       0.22500000       0.47500000       0.02500000 </v>
   <v>       0.27500000       0.47500000       0.02500000 </v>
   <v>       0.32500000       0.47500000       0.02500000 </v>
   <v>       0.37500000       0.47500000       0.02500000 </v>
   <v>       0.42500000       0.47500000       0.02500000 </v>
   <v>       0.47500000       0.47500000       0.02500000 </v>
   <v>       0.07500000       0.02500000       0.07500000 </v>
   <v>       0.12500000       0.02500000       0.07500000 </v>
   <v>       0.17500000       0.02500000       0.07500000 </v>
   <v>       0.22500000       0.02500000       0.07500000 </v>
   <v>       0.27500000       0.02500000       0.07500000 </v>
   <v>       0.32500000       0.02500000       0.07500000 </v>
   <v>       0.37500000       0.02500000       0.07500000 </v>
   <v>       0.42500000       0.02500000       0.07500000 </v>
   <v>       0.47500000       0.02500000       0.07500000 </v>
   <v>       0.07500000       0.07500000       0.07500000 </v>
   <v>       0.12500000       0.07500000       0.07500000 </v>
   <v>       0.17500000       0.07500000       0.07500000 </v>
   <v>       0.22500000       0.07500000       0.07500000 </v>
   <v>       0.27500000       0.07500000       0.07500000 </v>
   <v>       0.32500000       0.07500000       0.07500000 </v>
   <v>       0.37500000       0.07500000       0.07500000 </v>
   <v>       0.42500000       0.07500000       0.07500000 </v>
   <v>       0.47500000       0.07500000       0.07500000 </v>
   <v>       0.07500000       0.12500000       0.07500000 </v>
   <v>       0.12500000       0.12500000       0.07500000 </v>
   <v>       0.17500000       0.12500000       0.07500000 </v>
   <v>       0.22500000       0.12500000       0.07500000 </v>
   <v>       0.27500000       0.12500000       0.07500000 </v>
   <v>       0.32500000       0.12500000       0.07500000 </v>
   <v>       0.37500000       0.12500000       0.07500000 </v>
   <v>       0.42500000       0.12500000       0.07500000 </v>
   <v>       0.47500000       0.12500000       0.07500000 </v>
   <v>       0.07500000       0.17500000       0.07500000 </v>
   <v>       0.12500000       0.17500000       0.07500000 </v>
   <v>       0.17500000       0.17500000       0.07500000 </v>
   <v>       0.22500000       0.17500000       0.07500000 </v>
   <v>       0.27500000       0.17500000       0.07500000 </v>
   <v>       0.32500000       0.17500000       0.07500000 </v>
   <v>       0.37500000       0.17500000       0.07500000 </v>
   <v>       0.42500000       0.17500000       0.07500000 </v>
   <v>       0.47500000       0.17500000       0.07500000 </v>
   <v>       0.07500000       0.22500000       0.07500000 </v>
   <v>       0.12500000       0.22500000       0.07500000 </v>
   <v>       0.17500000       0.22500000       0.07500000 </v>
   <v>       0.22500000       0.22500000       0.07500000 </v>
   <v>       0.27500000       0.22500000       0.07500000 </v>
   <v>       0.32500000       0.22500000       0.07500000 </v>
   <v>       0.37500000       0.22500000       0.07500000 </v>
   <v>       0.42500000       0.22500000       0.07500000 </v>
   <v>       0.47500000       0.22500000       0.07500000 </v>
   <v>       0.07500000       0.27500000       0.07500000 </v>
   <v>       0.12500000       0.27500000       0.07500000 </v>
   <v>       0.17500000       0.27500000       0.07500000 </v>
   <v>       0.22500000       0.27500000       0.07500000 </v>
   <v>       0.27500000       0.27500000       0.07500000 </v>
   <v>       0.32500000       0.27500000       0.07500000 </v>
   <v>       0.37500000       0.27500000       0.07500000 </v>
   <v>       0.42500000       0.27500000       0.07500000 </v>
   <v>       0.47500000       0.27500000       0.07500000 </v>
   <v>       0.07500000       0.32500000       0.07500000 </v>
   <v>       0.12500000       0.32500000       0.07500000 </v>
   <v>       0.17500000       0.32500000       0.07500000 </v>
   <v>       0.22500000       0.32500000       0.07500000 </v>
   <v>       0.27500000       0.32500000       0.07500000 </v>
   <v>       0.32500000       0.32500000       0.07500000 </v>
   <v>       0.37500000       0.32500000       0.07500000 </v>
   <v>       0.42500000       0.32500000       0.07500000 </v>
   <v>       0.47500000       0.32500000       0.07500000 </v>
   <v>       0.07500000       0.37500000       0.07500000 </v>
   <v>       0.12500000       0.37500000       0.07500000 </v>
   <v>       0.17500000       0.37500000       0.07500000 </v>
   <v>       0.22500000       0.37500000       0.07500000 </v>
   <v>       0.27500000       0.37500000       0.07500000 </v>
   <v>       0.32500000       0.37500000       0.07500000 </v>
   <v>       0.37500000       0.37500000       0.07500000 </v>
   <v>       0.42500000       0.37500000       0.07500000 </v>
   <v>       0.47500000       0.37500000       0.07500000 </v>
   <v>       0.07500000       0.42500000       0.07500000 </v>
   <v>       0.12500000       0.42500000       0.07500000 </v>
   <v>       0.17500000       0.42500000       0.07500000 </v>
   <v>       0.22500000       0.42500000       0.07500000 </v>
   <v>       0.27500000       0.42500000       0.07500000 </v>
   <v>       0.32500000       0.42500000       0.07500000 </v>
   <v>       0.37500000       0.42500000       0.07500000 </v>
   <v>       0.42500000       0.42500000       0.07500000 </v>
   <v>       0.47500000       0.42500000       0.07500000 </v>
   <v>       0.07500000       0.47500000       0.07500000 </v>
   <v>       0.12500000       0.47500000       0.07500000 </v>
   <v>       0.17500000       0.47500000       0.07500000 </v>
   <v>       0.22500000       0.47500000       0.07500000 </v>
   <v>       0.27500000       0.47500000       0.07500000 </v>
   <v>       0.32500000       0.47500000       0.07500000 </v>
   <v>       0.37500000       0.47500000       0.07500000 </v>
   <v>       0.42500000       0.47500000       0.07500000 </v>
   <v>       0.47500000       0.47500000       0.07500000 </v>
   <v>       0.12500000       0.02500000       0.12500000 </v>
   <v>       0.17500000       0.02500000       0.12500000 </v>
   <v>       0.22500000       0.02500000       0.12500000 </v>
   <v>       0.27500000       0.02500000       0.12500000 </v>
   <v>       0.32500000       0.02500000       0.12500000 </v>
   <v>       0.37500000       0.02500000       0.12500000 </v>
   <v>       0.42500000       0.02500000       0.12500000 </v>
   <v>       0.47500000       0.02500000       0.12500000 </v>
   <v>       0.12500000       0.07500000       0.12500000 </v>
   <v>       0.17500000       0.07500000       0.12500000 </v>
   <v>       0.22500000       0.07500000       0.12500000 </v>
   <v>       0.27500000       0.07500000       0.12500000 </v>
   <v>       0.32500000       0.07500000       0.12500000 </v>
   <v>       0.37500000       0.07500000       0.12500000 </v>
   <v>       0.42500000       0.07500000       0.12500000 </v>
   <v>       0.47500000       0.07500000       0.12500000 </v>
   <v>       0.12500000       0.12500000       0.12500000 </v>
   <v>       0.17500000       0.12500000       0.12500000 </v>
   <v>       0.22500000       0.12500000       0.12500000 </v>
   <v>       0.27500000       0.12500000       0.12500000 </v>
   <v>       0.32500000       0.12500000       0.12500000 </v>
   <v>       0.37500000       0.12500000       0.12500000 </v>
   <v>       0.42500000       0.12500000       0.12500000 </v>
   <v>       0.47500000       0.12500000       0.12500000 </v>
   <v>       0.12500000       0.17500000       0.12500000 </v>
   <v>       0.17500000       0.17500000       0.12500000 </v>
   <v>       0.22500000       0.17500000       0.12500000 </v>
   <v>       0.27500000       0.17500000       0.12500000 </v>
   <v>       0.32500000       0.17500000       0.12500000 </v>
   <v>       0.37500000       0.17500000       0.12500000 </v>
   <v>       0.42500000       0.17500000       0.12500000 </v>
   <v>       0.47500000       0.17500000       0.12500000 </v>
   <v>       0.12500000       0.22500000       0.12500000 </v>
   <v>       0.17500000       0.22500000       0.12500000 </v>
   <v>       0.22500000       0.22500000       0.12500000 </v>
   <v>       0.27500000       0.22500000       0.12500000 </v>
   <v>       0.32500000       0.22500000       0.12500000 </v>
   <v>       0.37500000       0.22500000       0.12500000 </v>
   <v>       0.42500000       0.22500000       0.12500000 </v>
   <v>       0.47500000       0.22500000       0.12500000 </v>
   <v>       0.12500000       0.27500000       0.12500000 </v>
   <v>       0.17500000       0.27500000       0.12500000 </v>
   <v>       0.22500000       0.27500000       0.12500000 </v>
   <v>       0.27500000       0.27500000       0.12500000 </v>
   <v>       0.32500000       0.27500000       0.12500000 </v>
   <v>       0.37500000       0.27500000       0.12500000 </v>
   <v>       0.42500000       0.27500000       0.12500000 </v>
   <v>       0.47500000       0.27500000       0.12500000 </v>
   <v>       0.12500000       0.32500000       0.12500000 </v>
   <v>       0.17500000       0.32500000       0.12500000 </v>
   <v>       0.22500000       0.32500000       0.12500000 </v>
   <v>       0.27500000       0.32500000       0.12500000 </v>
   <v>       0.32500000       0.32500000       0.12500000 </v>
   <v>       0.37500000       0.32500000       0.12500000 </v>
   <v>       0.42500000       0.32500000       0.12500000 </v>
   <v>       0.47500000       0.32500000       0.12500000 </v>
   <v>       0.12500000       0.37500000       0.12500000 </v>
   <v>       0.17500000       0.37500000       0.12500000 </v>
   <v>       0.22500000       0.37500000       0.12500000 </v>
   <v>       0.27500000       0.37500000       0.12500000 </v>
   <v>       0.32500000       0.37500000       0.12500000 </v>
   <v>       0.37500000       0.37500000       0.12500000 </v>
   <v>       0.42500000       0.37500000       0.12500000 </v>
   <v>       0.47500000       0.37500000       0.12500000 </v>
   <v>       0.12500000       0.42500000       0.12500000 </v>
   <v>       0.17500000       0.42500000       0.12500000 </v>
   <v>       0.22500000       0.42500000       0.12500000 </v>
   <v>       0.27500000       0.42500000       0.12500000 </v>
   <v>       0.32500000       0.42500000       0.12500000 </v>
   <v>       0.37500000       0.42500000       0.12500000 </v>
   <v>       0.42500000       0.42500000       0.12500000 </v>
   <v>       0.47500000       0.42500000       0.12500000 </v>
   <v>       0.12500000       0.47500000       0.12500000 </v>
   <v>       0.17500000       0.47500000       0.12500000 </v>
   <v>       0.22500000       0.47500000       0.12500000 </v>
   <v>       0.27500000       0.47500000       0.12500000 </v>
   <v>       0.32500000       0.47500000       0.12500000 </v>
   <v>       0.37500000       0.47500000       0.12500000 </v>
   <v>       0.42500000       0.47500000       0.12500000 </v>
   <v>       0.47500000       0.47500000       0.12500000 </v>
   <v>       0.17500000       0.02500000       0.17500000 </v>
   <v>       0.22500000       0.02500000       0.17500000 </v>
   <v>       0.27500000       0.02500000       0.17500000 </v>
   <v>       0.32500000       0.02500000       0.17500000 </v>
   <v>       0.37500000       0.02500000       0.17500000 </v>
   <v>       0.42500000       0.02500000       0.17500000 </v>
   <v>       0.47500000       0.02500000       0.17500000 </v>
   <v>       0.17500000       0.07500000       0.17500000 </v>
   <v>       0.22500000       0.07500000       0.17500000 </v>
   <v>       0.27500000       0.07500000       0.17500000 </v>
   <v>       0.32500000       0.07500000       0.17500000 </v>
   <v>       0.37500000       0.07500000       0.17500000 </v>
   <v>       0.42500000       0.07500000       0.17500000 </v>
   <v>       0.47500000       0.07500000       0.17500000 </v>
   <v>       0.17500000       0.12500000       0.17500000 </v>
   <v>       0.22500000       0.12500000       0.17500000 </v>
   <v>       0.27500000       0.12500000       0.17500000 </v>
   <v>       0.32500000       0.12500000       0.17500000 </v>
   <v>       0.37500000       0.12500000       0.17500000 </v>
   <v>       0.42500000       0.12500000       0.17500000 </v>
   <v>       0.47500000       0.12500000       0.17500000 </v>
   <v>       0.17500000       0.17500000       0.17500000 </v>
   <v>       0.22500000       0.17500000       0.17500000 </v>
   <v>       0.27500000       0.17500000       0.17500000 </v>
   <v>       0.32500000       0.17500000       0.17500000 </v>
   <v>       0.37500000       0.17500000       0.17500000 </v>
   <v>       0.42500000       0.17500000       0.17500000 </v>
   <v>       0.47500000       0.17500000       0.17500000 </v>
   <v>       0.17500000       0.22500000       0.17500000 </v>
   <v>       0.22500000       0.22500000       0.17500000 </v>
   <v>       0.27500000       0.22500000       0.17500000 </v>
   <v>       0.32500000       0.22500000       0.17500000 </v>
   <v>       0.37500000       0.22500000       0.17500000 </v>
   <v>       0.42500000       0.22500000       0.17500000 </v>
   <v>       0.47500000       0.22500000       0.17500000 </v>
   <v>       0.17500000       0.27500000       0.17500000 </v>
   <v>       0.22500000       0.27500000       0.17500000 </v>
   <v>       0.27500000       0.27500000       0.17500000 </v>
   <v>       0.32500000       0.27500000       0.17500000 </v>
   <v>       0.37500000       0.27500000       0.17500000 </v>
   <v>       0.42500000       0.27500000       0.17500000 </v>
   <v>       0.47500000       0.27500000       0.17500000 </v>
   <v>       0.17500000       0.32500000       0.17500000 </v>
   <v>       0.22500000       0.32500000       0.17500000 </v>
   <v>       0.27500000       0.32500000       0.17500000 </v>
   <v>       0.32500000       0.32500000       0.17500000 </v>
   <v>       0.37500000       0.32500000       0.17500000 </v>
   <v>       0.42500000       0.32500000       0.17500000 </v>
   <v>       0.47500000       0.32500000       0.17500000 </v>
   <v>       0.17500000       0.37500000       0.17500000 </v>
   <v>       0.22500000       0.37500000       0.17500000 </v>
   <v>       0.27500000       0.37500000       0.17500000 </v>
   <v>       0.32500000       0.37500000       0.17500000 </v>
   <v>       0.37500000       0.37500000       0.17500000 </v>
   <v>       0.42500000       0.37500000       0.17500000 </v>
   <v>       0.47500000       0.37500000       0.17500000 </v>
   <v>       0.17500000       0.42500000       0.17500000 </v>
   <v>       0.22500000       0.42500000       0.17500000 </v>
   <v>       0.27500000       0.42500000       0.17500000 </v>
   <v>       0.32500000       0.42500000       0.17500000 </v>
   <v>       0.37500000       0.42500000       0.17500000 </v>
   <v>       0.42500000       0.42500000       0.17500000 </v>
   <v>       0.47500000       0.42500000       0.17500000 </v>
   <v>       0.17500000       0.47500000       0.17500000 </v>
   <v>       0.22500000       0.47500000       0.17500000 </v>
   <v>       0.27500000       0.47500000       0.17500000 </v>
   <v>       0.32500000       0.47500000       0.17500000 </v>
   <v>       0.37500000       0.47500000       0.17500000 </v>
   <v>       0.42500000       0.47500000       0.17500000 </v>
   <v>       0.47500000       0.47500000       0.17500000 </v>
   <v>       0.22500000       0.02500000       0.22500000 </v>
   <v>       0.27500000       0.02500000       0.22500000 </v>
   <v>       0.32500000       0.02500000       0.22500000 </v>
   <v>       0.37500000       0.02500000       0.22500000 </v>
   <v>       0.42500000       0.02500000       0.22500000 </v>
   <v>       0.47500000       0.02500000       0.22500000 </v>
   <v>       0.22500000       0.07500000       0.22500000 </v>
   <v>       0.27500000       0.07500000       0.22500000 </v>
   <v>       0.32500000       0.07500000       0.22500000 </v>
   <v>       0.37500000       0.07500000       0.22500000 </v>
   <v>       0.42500000       0.07500000       0.22500000 </v>
   <v>       0.47500000       0.07500000       0.22500000 </v>
   <v>       0.22500000       0.12500000       0.22500000 </v>
   <v>       0.27500000       0.12500000       0.22500000 </v>
   <v>       0.32500000       0.12500000       0.22500000 </v>
   <v>       0.37500000       0.12500000       0.22500000 </v>
   <v>       0.42500000       0.12500000       0.22500000 </v>
   <v>       0.47500000       0.12500000       0.22500000 </v>
   <v>       0.22500000       0.17500000       0.22500000 </v>
   <v>       0.27500000       0.17500000       0.22500000 </v>
   <v>       0.32500000       0.17500000       0.22500000 </v>
   <v>       0.37500000       0.17500000       0.22500000 </v>
   <v>       0.42500000       0.17500000       0.22500000 </v>
   <v>       0.47500000       0.17500000       0.22500000 </v>
   <v>       0.22500000       0.22500000       0.22500000 </v>
   <v>       0.27500000       0.22500000       0.22500000 </v>
   <v>       0.32500000       0.22500000       0.22500000 </v>
   <v>       0.37500000       0.22500000       0.22500000 </v>
   <v>       0.42500000       0.22500000       0.22500000 </v>
   <v>       0.47500000       0.22500000       0.22500000 </v>
   <v>       0.22500000       0.27500000       0.22500000 </v>
   <v>       0.27500000       0.27500000       0.22500000 </v>
   <v>       0.32500000       0.27500000       0.22500000 </v>
   <v>       0.37500000       0.27500000       0.22500000 </v>
   <v>       0.42500000       0.27500000       0.22500000 </v>
   <v>       0.47500000       0.27500000       0.22500000 </v>
   <v>       0.22500000       0.32500000       0.22500000 </v>
   <v>       0.27500000       0.32500000       0.22500000 </v>
   <v>       0.32500000       0.32500000       0.22500000 </v>
   <v>       0.37500000       0.32500000       0.22500000 </v>
   <v>       0.42500000       0.32500000       0.22500000 </v>
   <v>       0.47500000       0.32500000       0.22500000 </v>
   <v>       0.22500000       0.37500000       0.22500000 </v>
   <v>       0.27500000       0.37500000       0.22500000 </v>
   <v>       0.32500000       0.37500000       0.22500000 </v>
   <v>       0.37500000       0.37500000       0.22500000 </v>
   <v>       0.42500000       0.37500000       0.22500000 </v>
   <v>       0.47500000       0.37500000       0.22500000 </v>
   <v>       0.22500000       0.42500000       0.22500000 </v>
   <v>       0.27500000       0.42500000       0.22500000 </v>
   <v>       0.32500000       0.42500000       0.22500000 </v>
   <v>       0.37500000       0.42500000       0.22500000 </v>
   <v>       0.42500000       0.42500000       0.22500000 </v>
   <v>       0.47500000       0.42500000       0.22500000 </v>
   <v>       0.22500000       0.47500000       0.22500000 </v>
   <v>       0.27500000       0.47500000       0.22500000 </v>
   <v>       0.32500000       0.47500000       0.22500000 </v>
   <v>       0.37500000       0.47500000       0.22500000 </v>
   <v>       0.42500000       0.47500000       0.22500000 </v>
   <v>       0.47500000       0.47500000       0.22500000 </v>
   <v>       0.27500000       0.02500000       0.27500000 </v>
   <v>       0.32500000       0.02500000       0.27500000 </v>
   <v>       0.37500000       0.02500000       0.27500000 </v>
   <v>       0.42500000       0.02500000       0.27500000 </v>
   <v>       0.47500000       0.02500000       0.27500000 </v>
   <v>       0.27500000       0.07500000       0.27500000 </v>
   <v>       0.32500000       0.07500000       0.27500000 </v>
   <v>       0.37500000       0.07500000       0.27500000 </v>
   <v>       0.42500000       0.07500000       0.27500000 </v>
   <v>       0.47500000       0.07500000       0.27500000 </v>
   <v>       0.27500000       0.12500000       0.27500000 </v>
   <v>       0.32500000       0.12500000       0.27500000 </v>
   <v>       0.37500000       0.12500000       0.27500000 </v>
   <v>       0.42500000       0.12500000       0.27500000 </v>
   <v>       0.47500000       0.12500000       0.27500000 </v>
   <v>       0.27500000       0.17500000       0.27500000 </v>
   <v>       0.32500000       0.17500000       0.27500000 </v>
   <v>       0.37500000       0.17500000       0.27500000 </v>
   <v>       0.42500000       0.17500000       0.27500000 </v>
   <v>       0.47500000       0.17500000       0.27500000 </v>
   <v>       0.27500000       0.22500000       0.27500000 </v>
   <v>       0.32500000       0.22500000       0.27500000 </v>
   <v>       0.37500000       0.22500000       0.27500000 </v>
   <v>       0.42500000       0.22500000       0.27500000 </v>
   <v>       0.47500000       0.22500000       0.27500000 </v>
   <v>       0.27500000       0.27500000       0.27500000 </v>
   <v>       0.32500000       0.27500000       0.27500000 </v>
   <v>       0.37500000       0.27500000       0.27500000 </v>
   <v>       0.42500000       0.27500000       0.27500000 </v>
   <v>       0.47500000       0.27500000       0.27500000 </v>
   <v>       0.27500000       0.32500000       0.27500000 </v>
   <v>       0.32500000       0.32500000       0.27500000 </v>
   <v>       0.37500000       0.32500000       0.27500000 </v>
   <v>       0.42500000       0.32500000       0.27500000 </v>
   <v>       0.47500000       0.32500000       0.27500000 </v>
   <v>       0.27500000       0.37500000       0.27500000 </v>
   <v>       0.32500000       0.37500000       0.27500000 </v>
   <v>       0.37500000       0.37500000       0.27500000 </v>
   <v>       0.42500000       0.37500000       0.27500000 </v>
   <v>       0.47500000       0.37500000       0.27500000 </v>
   <v>       0.27500000       0.42500000       0.27500000 </v>
   <v>       0.32500000       0.42500000       0.27500000 </v>
   <v>       0.37500000       0.42500000       0.27500000 </v>
   <v>       0.42500000       0.42500000       0.27500000 </v>
   <v>       0.47500000       0.42500000       0.27500000 </v>
   <v>       0.27500000       0.47500000       0.27500000 </v>
   <v>       0.32500000       0.47500000       0.27500000 </v>
   <v>       0.37500000       0.47500000       0.27500000 </v>
   <v>       0.42500000       0.47500000       0.27500000 </v>
   <v>       0.47500000       0.47500000       0.27500000 </v>
   <v>       0.32500000       0.02500000       0.32500000 </v>
   <v>       0.37500000       0.02500000       0.32500000 </v>
   <v>       0.42500000       0.02500000       0.32500000 </v>
   <v>       0.47500000       0.02500000       0.32500000 </v>
   <v>       0.32500000       0.07500000       0.32500000 </v>
   <v>       0.37500000       0.07500000       0.32500000 </v>
   <v>       0.42500000       0.07500000       0.32500000 </v>
   <v>       0.47500000       0.07500000       0.32500000 </v>
   <v>       0.32500000       0.12500000       0.32500000 </v>
   <v>       0.37500000       0.12500000       0.32500000 </v>
   <v>       0.42500000       0.12500000       0.32500000 </v>
   <v>       0.47500000       0.12500000       0.32500000 </v>
   <v>       0.32500000       0.17500000       0.32500000 </v>
   <v>       0.37500000       0.17500000       0.32500000 </v>
   <v>       0.42500000       0.17500000       0.32500000 </v>
   <v>       0.47500000       0.17500000       0.32500000 </v>
   <v>       0.32500000       0.22500000       0.32500000 </v>
   <v>       0.37500000       0.22500000       0.32500000 </v>
   <v>       0.42500000       0.22500000       0.32500000 </v>
   <v>       0.47500000       0.22500000       0.32500000 </v>
   <v>       0.32500000       0.27500000       0.32500000 </v>
   <v>       0.37500000       0.27500000       0.32500000 </v>
   <v>       0.42500000       0.27500000       0.32500000 </v>
   <v>       0.47500000       0.27500000       0.32500000 </v>
   <v>       0.32500000       0.32500000       0.32500000 </v>
   <v>       0.37500000       0.32500000       0.32500000 </v>
   <v>       0.42500000       0.32500000       0.32500000 </v>
   <v>       0.47500000       0.32500000       0.32500000 </v>
   <v>       0.32500000       0.37500000       0.32500000 </v>
   <v>       0.37500000       0.37500000       0.32500000 </v>
   <v>       0.42500000       0.37500000       0.32500000 </v>
   <v>       0.47500000       0.37500000       0.32500000 </v>
   <v>       0.32500000       0.42500000       0.32500000 </v>
   <v>       0.37500000       0.42500000       0.32500000 </v>
   <v>       0.42500000       0.42500000       0.32500000 </v>
   <v>       0.47500000       0.42500000       0.32500000 </v>
   <v>       0.32500000       0.47500000       0.32500000 </v>
   <v>       0.37500000       0.47500000       0.32500000 </v>
   <v>       0.42500000       0.47500000       0.32500000 </v>
   <v>       0.47500000       0.47500000       0.32500000 </v>
   <v>       0.37500000       0.02500000       0.37500000 </v>
   <v>       0.42500000       0.02500000       0.37500000 </v>
   <v>       0.47500000       0.02500000       0.37500000 </v>
   <v>       0.37500000       0.07500000       0.37500000 </v>
   <v>       0.42500000       0.07500000       0.37500000 </v>
   <v>       0.47500000       0.07500000       0.37500000 </v>
   <v>       0.37500000       0.12500000       0.37500000 </v>
   <v>       0.42500000       0.12500000       0.37500000 </v>
   <v>       0.47500000       0.12500000       0.37500000 </v>
   <v>       0.37500000       0.17500000       0.37500000 </v>
   <v>       0.42500000       0.17500000       0.37500000 </v>
   <v>       0.47500000       0.17500000       0.37500000 </v>
   <v>       0.37500000       0.22500000       0.37500000 </v>
   <v>       0.42500000       0.22500000       0.37500000 </v>
   <v>       0.47500000       0.22500000       0.37500000 </v>
   <v>       0.37500000       0.27500000       0.37500000 </v>
   <v>       0.42500000       0.27500000       0.37500000 </v>
   <v>       0.47500000       0.27500000       0.37500000 </v>
   <v>       0.37500000       0.32500000       0.37500000 </v>
   <v>       0.42500000       0.32500000       0.37500000 </v>
   <v>       0.47500000       0.32500000       0.37500000 </v>
   <v>       0.37500000       0.37500000       0.37500000 </v>
   <v>       0.42500000       0.37500000       0.37500000 </v>
   <v>       0.47500000       0.37500000       0.37500000 </v>
   <v>       0.37500000       0.42500000       0.37500000 </v>
   <v>       0.42500000       0.42500000       0.37500000 </v>
   <v>       0.47500000       0.42500000       0.37500000 </v>
   <v>       0.37500000       0.47500000       0.37500000 </v>
   <v>       0.42500000       0.47500000       0.37500000 </v>
   <v>       0.47500000       0.47500000       0.37500000 </v>
   <v>       0.42500000       0.02500000       0.42500000 </v>
   <v>       0.47500000       0.02500000       0.42500000 </v>
   <v>       0.42500000       0.07500000       0.42500000 </v>
   <v>       0.47500000       0.07500000       0.42500000 </v>
   <v>       0.42500000       0.12500000       0.42500000 </v>
   <v>       0.47500000       0.12500000       0.42500000 </v>
   <v>       0.42500000       0.17500000       0.42500000 </v>
   <v>       0.47500000       0.17500000       0.42500000 </v>
   <v>       0.42500000       0.22500000       0.42500000 </v>
   <v>       0.47500000       0.22500000       0.42500000 </v>
   <v>       0.42500000       0.27500000       0.42500000 </v>
   <v>       0.47500000       0.27500000       0.42500000 </v>
   <v>       0.42500000       0.32500000       0.42500000 </v>
   <v>       0.47500000       0.32500000       0.42500000 </v>
   <v>       0.42500000       0.37500000       0.42500000 </v>
   <v>       0.47500000       0.37500000       0.42500000 </v>
   <v>       0.42500000       0.42500000       0.42500000 </v>
   <v>       0.47500000       0.42500000       0.42500000 </v>
   <v>       0.42500000       0.47500000       0.42500000 </v>
   <v>       0.47500000       0.47500000       0.42500000 </v>
   <v>       0.47500000       0.02500000       0.47500000 </v>
   <v>       0.47500000       0.07500000       0.47500000 </v>
   <v>       0.47500000       0.12500000       0.47500000 </v>
   <v>       0.47500000       0.17500000       0.47500000 </v>
   <v>       0.47500000       0.22500000       0.47500000 </v>
   <v>       0.47500000       0.27500000       0.47500000 </v>
   <v>       0.47500000       0.32500000       0.47500000 </v>
   <v>       0.47500000       0.37500000       0.47500000 </v>
   <v>       0.47500000       0.42500000       0.47500000 </v>
   <v>       0.47500000       0.47500000       0.47500000 </v>
  </varray>
  <varray name="weights" >
   <v>       0.00100000 </v>
   <v>       0.00200000 </v>
   <v>       0.00200000 </v>
   <v>       0.00200000 </v>
   <v>       0.00200000 </v>
   <v>       0.00200000 </v>
   <v>       0.00200000 </v>
   <v>       0.00200000 </v>
   <v>       0.00200000 </v>
   <v>       0.00200000 </v>
   <v>       0.00100000 </v>
   <v>       0.00200000 </v>
   <v>       0.00200000 </v>
   <v>       0.00200000 </v>
   <v>       0.00200000 </v>
   <v>       0.00200000 </v>
   <v>       0.00200000 </v>
   <v>       0.00200000 </v>
   <v>       0.00200000 </v>
   <v>       0.00200000 </v>
   <v>       0.00100000 </v>
   <v>       0.00200000 </v>
   <v>       0.00200000 </v>
   <v>       0.00200000 </v>
   <v>       0.00200000 </v>
   <v>       0.00200000 </v>
   <v>       0.00200000 </v>
   <v>       0.00200000 </v>
   <v>       0.00200000 </v>
   <v>       0.00200000 </v>
   <v>       0.00100000 </v>
   <v>       0.00200000 </v>
   <v>       0.00200000 </v>
   <v>       0.00200000 </v>
   <v>       0.00200000 </v>
   <v>       0.00200000 </v>
   <v>       0.00200000 </v>
   <v>       0.00200000 </v>
   <v>       0.00200000 </v>
   <v>       0.00200000 </v>
   <v>       0.00100000 </v>
   <v>       0.00200000 </v>
   <v>       0.00200000 </v>
   <v>       0.00200000 </v>
   <v>       0.00200000 </v>
   <v>       0.00200000 </v>
   <v>       0.00200000 </v>
   <v>       0.00200000 </v>
   <v>       0.00200000 </v>
   <v>       0.00200000 </v>
   <v>       0.00100000 </v>
   <v>       0.00200000 </v>
   <v>       0.00200000 </v>
   <v>       0.00200000 </v>
   <v>       0.00200000 </v>
   <v>       0.00200000 </v>
   <v>       0.00200000 </v>
   <v>       0.00200000 </v>
   <v>       0.00200000 </v>
   <v>       0.00200000 </v>
   <v>       0.00100000 </v>
   <v>       0.00200000 </v>
   <v>       0.00200000 </v>
   <v>       0.00200000 </v>
   <v>       0.00200000 </v>
   <v>       0.00200000 </v>
   <v>       0.00200000 </v>
   <v>       0.00200000 </v>
   <v>       0.00200000 </v>
   <v>       0.00200000 </v>
   <v>       0.00100000 </v>
   <v>       0.00200000 </v>
   <v>       0.00200000 </v>
   <v>       0.00200000 </v>
   <v>       0.00200000 </v>
   <v>       0.00200000 </v>
   <v>       0.00200000 </v>
   <v>       0.00200000 </v>
   <v>       0.00200000 </v>
   <v>       0.00200000 </v>
   <v>       0.00100000 </v>
   <v>       0.00200000 </v>
   <v>       0.00200000 </v>
   <v>       0.00200000 </v>
   <v>       0.00200000 </v>
   <v>       0.00200000 </v>
   <v>       0.00200000 </v>
   <v>       0.00200000 </v>
   <v>       0.00200000 </v>
   <v>       0.00200000 </v>
   <v>       0.00100000 </v>
   <v>       0.00200000 </v>
   <v>       0.00200000 </v>
   <v>       0.00200000 </v>
   <v>       0.00200000 </v>
   <v>       0.00200000 </v>
   <v>       0.00200000 </v>
   <v>       0.00200000 </v>
   <v>       0.00200000 </v>
   <v>       0.00200000 </v>
   <v>       0.00100000 </v>
   <v>       0.00200000 </v>
   <v>       0.00200000 </v>
   <v>       0.00200000 </v>
   <v>       0.00200000 </v>
   <v>       0.00200000 </v>
   <v>       0.00200000 </v>
   <v>       0.00200000 </v>
   <v>       0.00200000 </v>
   <v>       0.00100000 </v>
   <v>       0.00200000 </v>
   <v>       0.00200000 </v>
   <v>       0.00200000 </v>
   <v>       0.00200000 </v>
   <v>       0.00200000 </v>
   <v>       0.00200000 </v>
   <v>       0.00200000 </v>
   <v>       0.00200000 </v>
   <v>       0.00100000 </v>
   <v>       0.00200000 </v>
   <v>       0.00200000 </v>
   <v>       0.00200000 </v>
   <v>       0.00200000 </v>
   <v>       0.00200000 </v>
   <v>       0.00200000 </v>
   <v>       0.00200000 </v>
   <v>       0.00200000 </v>
   <v>       0.00100000 </v>
   <v>       0.00200000 </v>
   <v>       0.00200000 </v>
   <v>       0.00200000 </v>
   <v>       0.00200000 </v>
   <v>       0.00200000 </v>
   <v>       0.00200000 </v>
   <v>       0.00200000 </v>
   <v>       0.00200000 </v>
   <v>       0.00100000 </v>
   <v>       0.00200000 </v>
   <v>       0.00200000 </v>
   <v>       0.00200000 </v>
   <v>       0.00200000 </v>
   <v>       0.00200000 </v>
   <v>       0.00200000 </v>
   <v>       0.00200000 </v>
   <v>       0.00200000 </v>
   <v>       0.00100000 </v>
   <v>       0.00200000 </v>
   <v>       0.00200000 </v>
   <v>       0.00200000 </v>
   <v>       0.00200000 </v>
   <v>       0.00200000 </v>
   <v>       0.00200000 </v>
   <v>       0.00200000 </v>
   <v>       0.00200000 </v>
   <v>       0.00100000 </v>
   <v>       0.00200000 </v>
   <v>       0.00200000 </v>
   <v>       0.00200000 </v>
   <v>       0.00200000 </v>
   <v>       0.00200000 </v>
   <v>       0.00200000 </v>
   <v>       0.00200000 </v>
   <v>       0.00200000 </v>
   <v>       0.00100000 </v>
   <v>       0.00200000 </v>
   <v>       0.00200000 </v>
   <v>       0.00200000 </v>
   <v>       0.00200000 </v>
   <v>       0.00200000 </v>
   <v>       0.00200000 </v>
   <v>       0.00200000 </v>
   <v>       0.00200000 </v>
   <v>       0.00100000 </v>
   <v>       0.00200000 </v>
   <v>       0.00200000 </v>
   <v>       0.00200000 </v>
   <v>       0.00200000 </v>
   <v>       0.00200000 </v>
   <v>       0.00200000 </v>
   <v>       0.00200000 </v>
   <v>       0.00200000 </v>
   <v>       0.00100000 </v>
   <v>       0.00200000 </v>
   <v>       0.00200000 </v>
   <v>       0.00200000 </v>
   <v>       0.00200000 </v>
   <v>       0.00200000 </v>
   <v>       0.00200000 </v>
   <v>       0.00200000 </v>
   <v>       0.00200000 </v>
   <v>       0.00100000 </v>
   <v>       0.00200000 </v>
   <v>       0.00200000 </v>
   <v>       0.00200000 </v>
   <v>       0.00200000 </v>
   <v>       0.00200000 </v>
   <v>       0.00200000 </v>
   <v>       0.00200000 </v>
   <v>       0.00100000 </v>
   <v>       0.00200000 </v>
   <v>       0.00200000 </v>
   <v>       0.00200000 </v>
   <v>       0.00200000 </v>
   <v>       0.00200000 </v>
   <v>       0.00200000 </v>
   <v>       0.00200000 </v>
   <v>       0.00100000 </v>
   <v>       0.00200000 </v>
   <v>       0.00200000 </v>
   <v>       0.00200000 </v>
   <v>       0.00200000 </v>
   <v>       0.00200000 </v>
   <v>       0.00200000 </v>
   <v>       0.00200000 </v>
   <v>       0.00100000 </v>
   <v>       0.00200000 </v>
   <v>       0.00200000 </v>
   <v>       0.00200000 </v>
   <v>       0.00200000 </v>
   <v>       0.00200000 </v>
   <v>       0.00200000 </v>
   <v>       0.00200000 </v>
   <v>       0.00100000 </v>
   <v>       0.00200000 </v>
   <v>       0.00200000 </v>
   <v>       0.00200000 </v>
   <v>       0.00200000 </v>
   <v>       0.00200000 </v>
   <v>       0.00200000 </v>
   <v>       0.00200000 </v>
   <v>       0.00100000 </v>
   <v>       0.00200000 </v>
   <v>       0.00200000 </v>
   <v>       0.00200000 </v>
   <v>       0.00200000 </v>
   <v>       0.00200000 </v>
   <v>       0.00200000 </v>
   <v>       0.00200000 </v>
   <v>       0.00100000 </v>
   <v>       0.00200000 </v>
   <v>       0.00200000 </v>
   <v>       0.00200000 </v>
   <v>       0.00200000 </v>
   <v>       0.00200000 </v>
   <v>       0.00200000 </v>
   <v>       0.00200000 </v>
   <v>       0.00100000 </v>
   <v>       0.00200000 </v>
   <v>       0.00200000 </v>
   <v>       0.00200000 </v>
   <v>       0.00200000 </v>
   <v>       0.00200000 </v>
   <v>       0.00200000 </v>
   <v>       0.00200000 </v>
   <v>       0.00100000 </v>
   <v>       0.00200000 </v>
   <v>       0.00200000 </v>
   <v>       0.00200000 </v>
   <v>       0.00200000 </v>
   <v>       0.00200000 </v>
   <v>       0.00200000 </v>
   <v>       0.00200000 </v>
   <v>       0.00100000 </v>
   <v>       0.00200000 </v>
   <v>       0.00200000 </v>
   <v>       0.00200000 </v>
   <v>       0.00200000 </v>
   <v>       0.00200000 </v>
   <v>       0.00200000 </v>
   <v>       0.00200000 </v>
   <v>       0.00100000 </v>
   <v>       0.00200000 </v>
   <v>       0.00200000 </v>
   <v>       0.00200000 </v>
   <v>       0.00200000 </v>
   <v>       0.00200000 </v>
   <v>       0.00200000 </v>
   <v>       0.00100000 </v>
   <v>       0.00200000 </v>
   <v>       0.00200000 </v>
   <v>       0.00200000 </v>
   <v>       0.00200000 </v>
   <v>       0.00200000 </v>
   <v>       0.00200000 </v>
   <v>       0.00100000 </v>
   <v>       0.00200000 </v>
   <v>       0.00200000 </v>
   <v>       0.00200000 </v>
   <v>       0.00200000 </v>
   <v>       0.00200000 </v>
   <v>       0.00200000 </v>
   <v>       0.00100000 </v>
   <v>       0.00200000 </v>
   <v>       0.00200000 </v>
   <v>       0.00200000 </v>
   <v>       0.00200000 </v>
   <v>       0.00200000 </v>
   <v>       0.00200000 </v>
   <v>       0.00100000 </v>
   <v>       0.00200000 </v>
   <v>       0.00200000 </v>
   <v>       0.00200000 </v>
   <v>       0.00200000 </v>
   <v>       0.00200000 </v>
   <v>       0.00200000 </v>
   <v>       0.00100000 </v>
   <v>       0.00200000 </v>
   <v>       0.00200000 </v>
   <v>       0.00200000 </v>
   <v>       0.00200000 </v>
   <v>       0.00200000 </v>
   <v>       0.00200000 </v>
   <v>       0.00100000 </v>
   <v>       0.00200000 </v>
   <v>       0.00200000 </v>
   <v>       0.00200000 </v>
   <v>       0.00200000 </v>
   <v>       0.00200000 </v>
   <v>       0.00200000 </v>
   <v>       0.00100000 </v>
   <v>       0.00200000 </v>
   <v>       0.00200000 </v>
   <v>       0.00200000 </v>
   <v>       0.00200000 </v>
   <v>       0.00200000 </v>
   <v>       0.00200000 </v>
   <v>       0.00100000 </v>
   <v>       0.00200000 </v>
   <v>       0.00200000 </v>
   <v>       0.00200000 </v>
   <v>       0.00200000 </v>
   <v>       0.00200000 </v>
   <v>       0.00200000 </v>
   <v>       0.00100000 </v>
   <v>       0.00200000 </v>
   <v>       0.00200000 </v>
   <v>       0.00200000 </v>
   <v>       0.00200000 </v>
   <v>       0.00200000 </v>
   <v>       0.00200000 </v>
   <v>       0.00100000 </v>
   <v>       0.00200000 </v>
   <v>       0.00200000 </v>
   <v>       0.00200000 </v>
   <v>       0.00200000 </v>
   <v>       0.00200000 </v>
   <v>       0.00100000 </v>
   <v>       0.00200000 </v>
   <v>       0.00200000 </v>
   <v>       0.00200000 </v>
   <v>       0.00200000 </v>
   <v>       0.00200000 </v>
   <v>       0.00100000 </v>
   <v>       0.00200000 </v>
   <v>       0.00200000 </v>
   <v>       0.00200000 </v>
   <v>       0.00200000 </v>
   <v>       0.00200000 </v>
   <v>       0.00100000 </v>
   <v>       0.00200000 </v>
   <v>       0.00200000 </v>
   <v>       0.00200000 </v>
   <v>       0.00200000 </v>
   <v>       0.00200000 </v>
   <v>       0.00100000 </v>
   <v>       0.00200000 </v>
   <v>       0.00200000 </v>
   <v>       0.00200000 </v>
   <v>       0.00200000 </v>
   <v>       0.00200000 </v>
   <v>       0.00100000 </v>
   <v>       0.00200000 </v>
   <v>       0.00200000 </v>
   <v>       0.00200000 </v>
   <v>       0.00200000 </v>
   <v>       0.00200000 </v>
   <v>       0.00100000 </v>
   <v>       0.00200000 </v>
   <v>       0.00200000 </v>
   <v>       0.00200000 </v>
   <v>       0.00200000 </v>
   <v>       0.00200000 </v>
   <v>       0.00100000 </v>
   <v>       0.00200000 </v>
   <v>       0.00200000 </v>
   <v>       0.00200000 </v>
   <v>       0.00200000 </v>
   <v>       0.00200000 </v>
   <v>       0.00100000 </v>
   <v>       0.00200000 </v>
   <v>       0.00200000 </v>
   <v>       0.00200000 </v>
   <v>       0.00200000 </v>
   <v>       0.00200000 </v>
   <v>       0.00100000 </v>
   <v>       0.00200000 </v>
   <v>       0.00200000 </v>
   <v>       0.00200000 </v>
   <v>       0.00200000 </v>
   <v>       0.00200000 </v>
   <v>       0.00100000 </v>
   <v>       0.00200000 </v>
   <v>       0.00200000 </v>
   <v>       0.00200000 </v>
   <v>       0.00200000 </v>
   <v>       0.00100000 </v>
   <v>       0.00200000 </v>
   <v>       0.00200000 </v>
   <v>       0.00200000 </v>
   <v>       0.00200000 </v>
   <v>       0.00100000 </v>
   <v>       0.00200000 </v>
   <v>       0.00200000 </v>
   <v>       0.00200000 </v>
   <v>       0.00200000 </v>
   <v>       0.00100000 </v>
   <v>       0.00200000 </v>
   <v>       0.00200000 </v>
   <v>       0.00200000 </v>
   <v>       0.00200000 </v>
   <v>       0.00100000 </v>
   <v>       0.00200000 </v>
   <v>       0.00200000 </v>
   <v>       0.00200000 </v>
   <v>       0.00200000 </v>
   <v>       0.00100000 </v>
   <v>       0.00200000 </v>
   <v>       0.00200000 </v>
   <v>       0.00200000 </v>
   <v>       0.00200000 </v>
   <v>       0.00100000 </v>
   <v>       0.00200000 </v>
   <v>       0.00200000 </v>
   <v>       0.00200000 </v>
   <v>       0.00200000 </v>
   <v>       0.00100000 </v>
   <v>       0.00200000 </v>
   <v>       0.00200000 </v>
   <v>       0.00200000 </v>
   <v>       0.00200000 </v>
   <v>       0.00100000 </v>
   <v>       0.00200000 </v>
   <v>       0.00200000 </v>
   <v>       0.00200000 </v>
   <v>       0.00200000 </v>
   <v>       0.00100000 </v>
   <v>       0.00200000 </v>
   <v>       0.00200000 </v>
   <v>       0.00200000 </v>
   <v>       0.00200000 </v>
   <v>       0.00100000 </v>
   <v>       0.00200000 </v>
   <v>       0.00200000 </v>
   <v>       0.00200000 </v>
   <v>       0.00100000 </v>
   <v>       0.00200000 </v>
   <v>       0.00200000 </v>
   <v>       0.00200000 </v>
   <v>       0.00100000 </v>
   <v>       0.00200000 </v>
   <v>       0.00200000 </v>
   <v>       0.00200000 </v>
   <v>       0.00100000 </v>
   <v>       0.00200000 </v>
   <v>       0.00200000 </v>
   <v>       0.00200000 </v>
   <v>       0.00100000 </v>
   <v>       0.00200000 </v>
   <v>       0.00200000 </v>
   <v>       0.00200000 </v>
   <v>       0.00100000 </v>
   <v>       0.00200000 </v>
   <v>       0.00200000 </v>
   <v>       0.00200000 </v>
   <v>       0.00100000 </v>
   <v>       0.00200000 </v>
   <v>       0.00200000 </v>
   <v>       0.00200000 </v>
   <v>       0.00100000 </v>
   <v>       0.00200000 </v>
   <v>       0.00200000 </v>
   <v>       0.00200000 </v>
   <v>       0.00100000 </v>
   <v>       0.00200000 </v>
   <v>       0.00200000 </v>
   <v>       0.00200000 </v>
   <v>       0.00100000 </v>
   <v>       0.00200000 </v>
   <v>       0.00200000 </v>
   <v>       0.00200000 </v>
   <v>       0.00100000 </v>
   <v>       0.00200000 </v>
   <v>       0.00200000 </v>
   <v>       0.00100000 </v>
   <v>       0.00200000 </v>
   <v>       0.00200000 </v>
   <v>       0.00100000 </v>
   <v>       0.00200000 </v>
   <v>       0.00200000 </v>
   <v>       0.00100000 </v>
   <v>       0.00200000 </v>
   <v>       0.00200000 </v>
   <v>       0.00100000 </v>
   <v>       0.00200000 </v>
   <v>       0.00200000 </v>
   <v>       0.00100000 </v>
   <v>       0.00200000 </v>
   <v>       0.00200000 </v>
   <v>       0.00100000 </v>
   <v>       0.00200000 </v>
   <v>       0.00200000 </v>
   <v>       0.00100000 </v>
   <v>       0.00200000 </v>
   <v>       0.00200000 </v>
   <v>       0.00100000 </v>
   <v>       0.00200000 </v>
   <v>       0.00200000 </v>
   <v>       0.00100000 </v>
   <v>       0.00200000 </v>
   <v>       0.00200000 </v>
   <v>       0.00100000 </v>
   <v>       0.00200000 </v>
   <v>       0.00100000 </v>
   <v>       0.00200000 </v>
   <v>       0.00100000 </v>
   <v>       0.00200000 </v>
   <v>       0.00100000 </v>
   <v>       0.00200000 </v>
   <v>       0.00100000 </v>
   <v>       0.00200000 </v>
   <v>       0.00100000 </v>
   <v>       0.00200000 </v>
   <v>       0.00100000 </v>
   <v>       0.00200000 </v>
   <v>       0.00100000 </v>
   <v>       0.00200000 </v>
   <v>       0.00100000 </v>
   <v>       0.00200000 </v>
   <v>       0.00100000 </v>
   <v>       0.00200000 </v>
   <v>       0.00100000 </v>
   <v>       0.00100000 </v>
   <v>       0.00100000 </v>
   <v>       0.00100000 </v>
   <v>       0.00100000 </v>
   <v>       0.00100000 </v>
   <v>       0.00100000 </v>
   <v>       0.00100000 </v>
   <v>       0.00100000 </v>
   <v>       0.00100000 </v>
  </varray>
 </kpoints>
 <parameters>
  <separator name="general" >
   <i type="string" name="SYSTEM">Al fcc relaxation</i>
   <i type="logical" name="LCOMPAT"> F  </i>
  </separator>
  <separator name="electronic" >
   <i type="string" name="PREC">accura</i>
   <i name="ENMAX">    400.00000000</i>
   <i name="ENAUG">    291.05200000</i>
   <i name="EDIFF">      0.00000100</i>
   <i type="int" name="IALGO">    68</i>
   <i type="int" name="IWAVPR">    11</i>
   <i type="int" name="NBANDS">    14</i>
   <i type="int" name="NBANDSLOW">    -1</i>
   <i type="int" name="NBANDSHIGH">    -1</i>
   <i name="NELECT">     12.00000000</i>
   <i type="int" name="TURBO">     0</i>
   <i type="int" name="IRESTART">     0</i>
   <i type="int" name="NREBOOT">     0</i>
   <i type="int" name="NMIN">     0</i>
   <i name="EREF">      0.00000000</i>
   <separator name="electronic smearing" >
    <i type="int" name="ISMEAR">     1</i>
    <i name="SIGMA">      0.20000000</i>
    <i name="KSPACING">      0.08000000</i>
    <i type="logical" name="KGAMMA"> T  </i>
    <i type="logical" name="KBLOWUP"> T  </i>
   </separator>
   <separator name="electronic projectors" >
    <i type="logical" name="LREAL"> T  </i>
    <v name="ROPT">     -0.00025000</v>
    <i type="int" name="LMAXPAW">  -100</i>
    <i type="int" name="LMAXMIX">     2</i>
    <i type="logical" name="NLSPLINE"> F  </i>
   </separator>
   <separator name="electronic startup" >
    <i type="int" name="ISTART">     0</i>
    <i type="int" name="ICHARG">     2</i>
    <i type="int" name="INIWAV">     1</i>
   </separator>
   <separator name="electronic spin" >
    <i type="int" name="ISPIN">     1</i>
    <i type="logical" name="LNONCOLLINEAR"> F  </i>
    <v name="MAGMOM">      1.00000000      1.00000000      1.00000000      1.00000000</v>
    <i name="NUPDOWN">     -1.00000000</i>
    <i type="logical" name="LSORBIT"> F  </i>
    <v name="SAXIS">      0.00000000      0.00000000      1.00000000</v>
    <i type="logical" name="LSPIRAL"> F  </i>
    <v name="QSPIRAL">      0.00000000      0.00000000      0.00000000</v>
    <i type="logical" name="LZEROZ"> F  </i>
   </separator>
   <separator name="electronic exchange-correlation" >
    <i type="logical" name="LASPH"> F  </i>
    <i type="logical" name="LMETAGGA"> F  </i>
   </separator>
   <separator name="electronic convergence" >
    <i type="int" name="NELM">    60</i>
    <i type="int" name="NELMDL">    -5</i>
    <i type="int" name="NELMIN">     4</i>
    <i name="ENINI">    400.00000000</i>
    <separator name="electronic convergence detail" >
     <i type="logical" name="LDIAG"> T  </i>
     <i type="logical" name="LSUBROT"> F  </i>
     <i name="WEIMIN">      0.00100000</i>
     <i name="EBREAK">      0.00000002</i>
     <i name="DEPER">      0.30000000</i>
     <i type="int" name="NRMM">     4</i>
     <i name="TIME">      0.40000000</i>
    </separator>
   </separator>
   <separator name="electronic mixer" >
    <i name="AMIX">      0.40000000</i>
    <i name="BMIX">      1.00000000</i>
    <i name="AMIN">      0.10000000</i>
    <i name="AMIX_MAG">      1.60000000</i>
    <i name="BMIX_MAG">      1.00000000</i>
    <separator name="electronic mixer details" >
     <i type="int" name="IMIX">     4</i>
     <i type="logical" name="MIXFIRST"> F  </i>
     <i type="int" name="MAXMIX">   -45</i>
     <i name="WC">    100.00000000</i>
     <i type="int" name="INIMIX">     1</i>
     <i type="int" name="MIXPRE">     1</i>
     <i type="int" name="MREMOVE">     5</i>
    </separator>
   </separator>
   <separator name="electronic dipolcorrection" >
    <i type="logical" name="LDIPOL"> F  </i>
    <i type="logical" name="LMONO"> F  </i>
    <i type="int" name="IDIPOL">     0</i>
    <i name="EPSILON">      1.00000000</i>
    <v name="DIPOL">   -100.00000000   -100.00000000   -100.00000000</v>
    <i name="EFIELD">      0.00000000</i>
   </separator>
  </separator>
  <separator name="grids" >
   <i type="int" name="NGX">    28</i>
   <i type="int" name="NGY">    28</i>
   <i type="int" name="NGZ">    28</i>
   <i type="int" name="NGXF">    56</i>
   <i type="int" name="NGYF">    56</i>
   <i type="int" name="NGZF">    56</i>
   <i type="logical" name="ADDGRID"> F  </i>
  </separator>
  <separator name="ionic" >
   <i type="int" name="NSW">   100</i>
   <i type="int" name="IBRION">     2</i>
   <i type="int" name="MDALGO">     0</i>
   <i type="int" name="ISIF">     2</i>
   <i name="PSTRESS">      0.00000000</i>
   <i name="EDIFFG">      0.00001000</i>
   <i type="int" name="NFREE">     1</i>
   <i name="POTIM">      0.50000000</i>
   <i name="SMASS">     -3.00000000</i>
   <i name="SCALEE">      1.00000000</i>
  </separator>
  <separator name="ionic md" >
   <i name="TEBEG">      0.00010000</i>
   <i name="TEEND">      0.00010000</i>
   <i type="int" name="NBLOCK">     1</i>
   <i type="int" name="KBLOCK">   100</i>
   <i type="int" name="NPACO">   256</i>
   <i name="APACO">     10.00000000</i>
  </separator>
  <separator name="symmetry" >
   <i type="int" name="ISYM">     2</i>
   <i name="SYMPREC">      0.00001000</i>
  </separator>
  <separator name="dos" >
   <i type="int" name="LORBIT">     0</i>
   <v name="RWIGS">     -1.00000000</v>
   <i type="int" name="NEDOS">   301</i>
   <i name="EMIN">     10.00000000</i>
   <i name="EMAX">    -10.00000000</i>
   <i name="EFERMI">      0.00000000</i>
  </separator>
  <separator name="writing" >
   <i type="int" name="NWRITE">     2</i>
   <i type="logical" name="LWAVE"> F  </i>
   <i type="logical" name="LDOWNSAMPLE"> F  </i>
   <i type="logical" name="LCHARG"> F  </i>
   <i type="logical" name="LPARD"> F  </i>
   <i type="logical" name="LVTOT"> F  </i>
   <i type="logical" name="LVHAR"> F  </i>
   <i type="logical" name="LELF"> F  </i>
   <i type="logical" name="LOPTICS"> F  </i>
   <v name="STM">      0.00000000      0.00000000      0.00000000      0.00000000      0.00000000      0.00000000      0.00000000</v>
  </separator>
  <separator name="performance" >
   <i type="int" name="NPAR">    14</i>
   <i type="int" name="NSIM">     4</i>
   <i type="int" name="NBLK">    -1</i>
   <i type="logical" name="LPLANE"> T  </i>
   <i type="logical" name="LSCALAPACK"> T  </i>
   <i type="logical" name="LSCAAWARE"> F  </i>
   <i type="logical" name="LSCALU"> F  </i>
   <i type="logical" name="LASYNC"> F  </i>
   <i type="logical" name="LORBITALREAL"> F  </i>
  </separator>
  <separator name="miscellaneous" >
   <i type="int" name="IDIOT">     3</i>
   <i type="int" name="PHON_NSTRUCT">    -1</i>
   <i type="logical" name="LMUSIC"> F  </i>
   <v name="POMASS">     26.98100000</v>
   <v name="DARWINR">      0.00000000</v>
   <v name="DARWINV">      1.00000000</v>
   <i type="logical" name="LCORR"> T  </i>
  </separator>
  <i type="logical" name="GGA_COMPAT"> T  </i>
  <i type="logical" name="LBERRY"> F  </i>
  <i type="int" name="ICORELEVEL">     0</i>
  <i type="logical" name="LDAU"> F  </i>
  <i type="int" name="I_CONSTRAINED_M">     0</i>
  <separator name="electronic exchange-correlation" >
   <i type="string" name="GGA">--</i>
   <i type="int" name="VOSKOWN">     0</i>
   <i type="logical" name="LHFCALC"> F  </i>
   <i type="string" name="PRECFOCK"></i>
   <i type="logical" name="LSYMGRAD"> F  </i>
   <i type="logical" name="LHFONE"> F  </i>
   <i type="logical" name="LRHFCALC"> F  </i>
   <i type="logical" name="LTHOMAS"> F  </i>
   <i type="logical" name="LMODELHF"> F  </i>
   <i type="logical" name="LFOCKACE"> F  </i>
   <i name="ENCUT4O">     -1.00000000</i>
   <i type="int" name="EXXOEP">     0</i>
   <i type="int" name="FOURORBIT">     0</i>
   <i name="AEXX">      0.00000000</i>
   <i name="HFALPHA">      0.00000000</i>
   <i name="MCALPHA">      0.00000000</i>
   <i name="ALDAX">      1.00000000</i>
   <i name="AGGAX">      1.00000000</i>
   <i name="ALDAC">      1.00000000</i>
   <i name="AGGAC">      1.00000000</i>
   <i type="int" name="NKREDX">     1</i>
   <i type="int" name="NKREDY">     1</i>
   <i type="int" name="NKREDZ">     1</i>
   <i type="logical" name="SHIFTRED"> F  </i>
   <i type="logical" name="ODDONLY"> F  </i>
   <i type="logical" name="EVENONLY"> F  </i>
   <i type="int" name="LMAXFOCK">     0</i>
   <i type="int" name="NMAXFOCKAE">     0</i>
   <i type="logical" name="LFOCKAEDFT"> F  </i>
   <i name="HFSCREEN">      0.00000000</i>
   <i name="HFSCREENC">      0.00000000</i>
   <i type="int" name="NBANDSGWLOW">     0</i>
  </separator>
  <separator name="vdW DFT" >
   <i type="logical" name="LUSE_VDW"> F  </i>
   <i type="int" name="IVDW_NL">     1</i>
   <i type="logical" name="LSPIN_VDW"> F  </i>
   <i name="Zab_VDW">     -0.84910000</i>
   <i name="PARAM1">      0.12340000</i>
   <i name="PARAM2">      1.00000000</i>
   <i name="PARAM3">      0.00000000</i>
  </separator>
  <separator name="model GW" >
   <i type="int" name="MODEL_GW">     0</i>
   <i name="MODEL_EPS0">      9.83349127</i>
   <i name="MODEL_ALPHA">      1.00000000</i>
  </separator>
  <separator name="linear response parameters" >
   <i type="logical" name="LEPSILON"> F  </i>
   <i type="logical" name="LRPA"> F  </i>
   <i type="logical" name="LNABLA"> F  </i>
   <i type="logical" name="LVEL"> F  </i>
   <i name="CSHIFT">      0.10000000</i>
   <i name="OMEGAMAX">     -1.00000000</i>
   <i name="DEG_THRESHOLD">      0.00200000</i>
   <i name="RTIME">     -0.10000000</i>
   <i name="WPLASMAI">      0.00000000</i>
   <v name="DFIELD">      0.00000000      0.00000000      0.00000000</v>
   <v name="WPLASMA">      0.00000000      0.00000000      0.00000000      0.00000000      0.00000000      0.00000000      0.00000000      0.00000000      0.00000000</v>
  </separator>
  <separator name="orbital magnetization" >
   <i type="logical" name="NUCIND"> F  </i>
   <v name="MAGPOS">      0.00000000      0.00000000      0.00000000</v>
   <i type="logical" name="LNICSALL"> T  </i>
   <i type="logical" name="ORBITALMAG"> F  </i>
   <i type="logical" name="LMAGBLOCH"> F  </i>
   <i type="logical" name="LCHIMAG"> F  </i>
   <i type="logical" name="LGAUGE"> T  </i>
   <i type="int" name="MAGATOM">     0</i>
   <v name="MAGDIPOL">      0.00000000      0.00000000      0.00000000</v>
   <v name="AVECCONST">      0.00000000      0.00000000      0.00000000</v>
  </separator>
  <separator name="response functions" >
   <i type="logical" name="LALL_IN_ONE"> F  </i>
   <i type="int" name="IALL_IN_ONE">    -1</i>
   <i type="int" name="NBANDS_WAVE">    -1</i>
   <i type="logical" name="LFINITE_TEMPERATURE"> F  </i>
   <i type="logical" name="LADDER"> F  </i>
   <i type="logical" name="LRPAFORCE"> F  </i>
   <i type="logical" name="LFXC"> F  </i>
   <i type="logical" name="LHARTREE"> T  </i>
   <i type="int" name="IBSE">     0</i>
   <v type="int" name="KPOINT">    -1     0     0     0</v>
   <i type="logical" name="LTCTC"> F  </i>
   <i type="logical" name="LTCTE"> F  </i>
   <i type="logical" name="LTETE"> F  </i>
   <i type="logical" name="LTRIPLET"> F  </i>
   <i type="logical" name="LFXCEPS"> F  </i>
   <i type="logical" name="LFXHEG"> F  </i>
   <i type="int" name="NATURALO">     2</i>
   <i type="logical" name="LHOLEGF"> F  </i>
   <i type="logical" name="L2ORDER"> F  </i>
   <i type="logical" name="LDMP1"> F  </i>
   <i type="logical" name="LMP2LT"> F  </i>
   <i type="logical" name="LSMP2LT"> F  </i>
   <i type="logical" name="LGWLF"> F  </i>
   <i name="ENCUTGW">     -1.60000002</i>
   <i name="ENCUTGWSOFT">     -1.60000002</i>
   <i name="ENCUTLF">     -1.00000000</i>
   <i type="logical" name="LESF_SPLINES"> F  </i>
   <i type="int" name="LMAXMP2">    -1</i>
   <i name="SCISSOR">      0.00000000</i>
   <i type="int" name="NOMEGA">     0</i>
   <i type="int" name="NOMEGAR">     0</i>
   <i type="int" name="NBANDSGW">    -1</i>
   <i type="int" name="NBANDSO">    -1</i>
   <i type="int" name="NBANDSV">    -1</i>
   <i type="int" name="NELMGW">     1</i>
   <i type="int" name="NELMHF">     1</i>
   <i type="int" name="DIM">     3</i>
   <i type="int" name="IESPILON">     4</i>
   <i type="int" name="ANTIRES">     0</i>
   <i name="OMEGAMAX">    -30.00000000</i>
   <i name="OMEGAMIN">    -30.00000000</i>
   <i name="OMEGATL">   -200.00000000</i>
   <i type="int" name="OMEGAGRID">     0</i>
   <i name="CSHIFT">     -0.10000000</i>
   <i type="logical" name="LSELFENERGY"> F  </i>
   <i type="logical" name="LSPECTRAL"> F  </i>
   <i type="logical" name="LSPECTRALGW"> F  </i>
   <i type="logical" name="LSINGLES"> F  </i>
   <i type="logical" name="LFERMIGW"> F  </i>
   <i type="logical" name="ODDONLYGW"> F  </i>
   <i type="logical" name="EVENONLYGW"> F  </i>
   <i type="int" name="NKREDLFX">     1</i>
   <i type="int" name="NKREDLFY">     1</i>
   <i type="int" name="NKREDLFZ">     1</i>
   <i type="int" name="MAXMEM">  2800</i>
   <i type="int" name="TELESCOPE">     0</i>
   <i type="int" name="NTAUPAR">    -1</i>
   <i type="int" name="NOMEGAPAR">    -1</i>
   <i name="DAMP_NEWTON">      0.80000001</i>
   <i name="LAMBDA">      1.00000000</i>
  </separator>
  <separator name="External order field" >
   <i name="OFIELD_KAPPA">      0.00000000</i>
   <v name="OFIELD_K">      0.00000000      0.00000000      0.00000000</v>
   <i name="OFIELD_Q6_NEAR">      0.00000000</i>
   <i name="OFIELD_Q6_FAR">      0.00000000</i>
   <i name="OFIELD_A">      0.00000000</i>
  </separator>
  <separator name="optional k-points parameters" >
   <i type="int" name="KPOINTS_OPT_MODE">     1</i>
   <i type="logical" name="LKPOINTS_OPT"> F  </i>
  </separator>
 </parameters>
 <atominfo>
  <atoms>       4 </atoms>
  <types>       1 </types>
  <array name="atoms" >
   <dimension dim="1">ion</dimension>
   <field type="string">element</field>
   <field type="int">atomtype</field>
   <set>
    <rc><c>Al</c><c>   1</c></rc>
    <rc><c>Al</c><c>   1</c></rc>
    <rc><c>Al</c><c>   1</c></rc>
    <rc><c>Al</c><c>   1</c></rc>
   </set>
  </array>
  <array name="atomtypes" >
   <dimension dim="1">type</dimension>
   <field type="int">atomspertype</field>
   <field type="string">element</field>
   <field>mass</field>
   <field>valence</field>
   <field type="string">pseudopotential</field>
   <set>
    <rc><c>   4</c><c>Al</c><c>     26.98100000</c><c>      3.00000000</c><c>  PAW_PBE Al 04Jan2001                  </c></rc>
   </set>
  </array>
 </atominfo>
 <structure name="initialpos" >
  <crystal>
   <varray name="basis" >
    <v>       4.03892969       0.00000000       0.00000000 </v>
    <v>      -0.00000000       4.01868430       0.00000000 </v>
    <v>       0.00000000       0.00000000       4.03892969 </v>
   </varray>
   <i name="volume">     65.55660844 </i>
   <varray name="rec_basis" >
    <v>       0.24759035       0.00000000      -0.00000000 </v>
    <v>       0.00000000       0.24883766      -0.00000000 </v>
    <v>       0.00000000      -0.00000000       0.24759035 </v>
   </varray>
  </crystal>
  <varray name="positions" >
   <v>       0.00000000       0.00000000       0.00000000 </v>
   <v>       0.00000000       0.50000000       0.50000000 </v>
   <v>       0.50000000       0.00000000       0.50000000 </v>
   <v>       0.50000000       0.50000000       0.00000000 </v>
  </varray>
 </structure>
 <calculation>
  <scstep>
   <time name="dav">   26.77   13.42</time>
   <time name="total">   26.82   13.45</time>
   <energy>
    <i name="alphaZ">     -0.81976417 </i>
    <i name="ewald">   -294.72424840 </i>
    <i name="hartreedc">     -0.39570625 </i>
    <i name="XCdc">   -104.91036699 </i>
    <i name="pawpsdc">    264.80062850 </i>
    <i name="pawaedc">   -136.98248303 </i>
    <i name="eentropy">      0.00097979 </i>
    <i name="bandstr">     56.52865954 </i>
    <i name="atom">    214.15261729 </i>
    <i name="e_fr_energy">     -2.34968371 </i>
    <i name="e_wo_entrp">     -2.35066350 </i>
    <i name="e_0_energy">     -2.35001031 </i>
   </energy>
  </scstep>
  <scstep>
   <time name="dav">   38.99   19.53</time>
   <time name="total">   39.00   19.54</time>
   <energy>
    <i name="e_fr_energy">    -15.00718147 </i>
    <i name="e_wo_entrp">    -15.00929605 </i>
    <i name="e_0_energy">    -15.00788633 </i>
   </energy>
  </scstep>
  <scstep>
   <time name="dav">   34.89   17.46</time>
   <time name="total">   34.90   17.47</time>
   <energy>
    <i name="e_fr_energy">    -15.07670956 </i>
    <i name="e_wo_entrp">    -15.07883196 </i>
    <i name="e_0_energy">    -15.07741702 </i>
   </energy>
  </scstep>
  <scstep>
   <time name="dav">   44.24   22.13</time>
   <time name="total">   44.25   22.14</time>
   <energy>
    <i name="e_fr_energy">    -15.07685633 </i>
    <i name="e_wo_entrp">    -15.07897916 </i>
    <i name="e_0_energy">    -15.07756394 </i>
   </energy>
  </scstep>
  <scstep>
   <time name="dav">   35.78   17.90</time>
   <time name="total">   36.61   18.31</time>
   <energy>
    <i name="e_fr_energy">    -15.07685643 </i>
    <i name="e_wo_entrp">    -15.07897925 </i>
    <i name="e_0_energy">    -15.07756404 </i>
   </energy>
  </scstep>
  <scstep>
   <time name="diag">    4.71    2.36</time>
   <time name="diis">    8.58    4.58</time>
   <time name="orth">    0.30    0.15</time>
   <time name="total">   14.45    7.51</time>
   <energy>
    <i name="e_fr_energy">    -15.02459807 </i>
    <i name="e_wo_entrp">    -15.02675810 </i>
    <i name="e_0_energy">    -15.02531808 </i>
   </energy>
  </scstep>
  <scstep>
   <time name="diag">    4.71    2.36</time>
   <time name="diis">    8.55    4.56</time>
   <time name="orth">    0.30    0.15</time>
   <time name="total">   14.43    7.50</time>
   <energy>
    <i name="e_fr_energy">    -14.98636565 </i>
    <i name="e_wo_entrp">    -14.98856583 </i>
    <i name="e_0_energy">    -14.98709904 </i>
   </energy>
  </scstep>
  <scstep>
   <time name="diag">    4.75    2.38</time>
   <time name="diis">    8.62    4.59</time>
   <time name="orth">    0.30    0.15</time>
   <time name="total">   14.54    7.56</time>
   <energy>
    <i name="e_fr_energy">    -14.98633516 </i>
    <i name="e_wo_entrp">    -14.98853565 </i>
    <i name="e_0_energy">    -14.98706865 </i>
   </energy>
  </scstep>
  <scstep>
   <time name="diag">    4.71    2.36</time>
   <time name="diis">    8.65    4.64</time>
   <time name="orth">    0.30    0.15</time>
   <time name="total">   14.52    7.58</time>
   <energy>
    <i name="e_fr_energy">    -14.98634091 </i>
    <i name="e_wo_entrp">    -14.98854174 </i>
    <i name="e_0_energy">    -14.98707452 </i>
   </energy>
  </scstep>
  <scstep>
   <time name="diag">    4.70    2.35</time>
   <time name="diis">    8.66    4.63</time>
   <time name="orth">    0.30    0.15</time>
   <time name="total">   14.53    7.57</time>
   <energy>
    <i name="e_fr_energy">    -14.98634187 </i>
    <i name="e_wo_entrp">    -14.98854267 </i>
    <i name="e_0_energy">    -14.98707547 </i>
   </energy>
  </scstep>
  <scstep>
   <time name="diag">    4.75    2.38</time>
   <time name="diis">    8.27    4.63</time>
   <time name="orth">    0.30    0.15</time>
   <time name="total">   14.18    7.59</time>
   <energy>
    <i name="e_fr_energy">    -14.98633745 </i>
    <i name="e_wo_entrp">    -14.98853831 </i>
    <i name="e_0_energy">    -14.98707107 </i>
   </energy>
  </scstep>
  <scstep>
   <time name="diag">    4.54    2.27</time>
   <time name="diis">    6.79    4.35</time>
   <time name="orth">    0.30    0.15</time>
   <time name="total">   11.69    6.80</time>
   <energy>
    <i name="alphaZ">     -0.81976417 </i>
    <i name="ewald">   -294.72424840 </i>
    <i name="hartreedc">     -0.42222029 </i>
    <i name="XCdc">   -104.46815609 </i>
    <i name="pawpsdc">    569.79591412 </i>
    <i name="pawaedc">   -442.03193262 </i>
    <i name="eentropy">      0.00220085 </i>
    <i name="bandstr">     43.52925197 </i>
    <i name="atom">    214.15261729 </i>
    <i name="e_fr_energy">    -14.98633734 </i>
    <i name="e_wo_entrp">    -14.98853819 </i>
    <i name="e_0_energy">    -14.98707095 </i>
   </energy>
  </scstep>
  <structure>
   <crystal>
    <varray name="basis" >
     <v>       4.03892969       0.00000000       0.00000000 </v>
     <v>      -0.00000000       4.01868430       0.00000000 </v>
     <v>       0.00000000       0.00000000       4.03892969 </v>
    </varray>
    <i name="volume">     65.55660844 </i>
    <varray name="rec_basis" >
     <v>       0.24759035       0.00000000      -0.00000000 </v>
     <v>       0.00000000       0.24883766      -0.00000000 </v>
     <v>       0.00000000      -0.00000000       0.24759035 </v>
    </varray>
   </crystal>
   <varray name="positions" >
    <v>       0.00000000       0.00000000       0.00000000 </v>
    <v>       0.00000000       0.50000000       0.50000000 </v>
    <v>       0.50000000       0.00000000       0.50000000 </v>
    <v>       0.50000000       0.50000000       0.00000000 </v>
   </varray>
  </structure>
  <varray name="forces" >
   <v>       0.00000000      -0.00000000       0.00000000 </v>
   <v>      -0.00000000       0.00000000      -0.00000000 </v>
   <v>      -0.00000000      -0.00000000      -0.00000000 </v>
   <v>       0.00000000       0.00000000       0.00000000 </v>
  </varray>
  <varray name="stress" >
   <v>       2.55106628      -0.00000000       0.00000000 </v>
   <v>      -0.00000000       7.59322493      -0.00000000 </v>
   <v>       0.00000000      -0.00000000       2.55106628 </v>
  </varray>
  <energy>
   <i name="e_fr_energy">    -14.98633734 </i>
   <i name="e_wo_entrp">    -14.98853819 </i>
   <i name="e_0_energy">    -14.98707095 </i>
  </energy>
  <time name="totalsc">  303.91  155.61</time>
  <eigenvalues>
   <array>
    <dimension dim="1">band</dimension>
    <dimension dim="2">kpoint</dimension>
    <dimension dim="3">spin</dimension>
    <field>eigene</field>
    <field>occ</field>
    <set>
     <set comment="spin 1">
      <set comment="kpoint 1">
       <r>   -3.0933    1.0000 </r>
       <r>    4.9936    1.0000 </r>
       <r>    4.9936    1.0000 </r>
       <r>    5.0668    1.0000 </r>
       <r>    6.5787    1.0000 </r>
       <r>    6.5787    1.0000 </r>
       <r>    6.6822    1.0000 </r>
       <r>   12.8317   -0.0000 </r>
       <r>   12.9004   -0.0000 </r>
       <r>   12.9004   -0.0000 </r>
       <r>   13.6497    0.0000 </r>
       <r>   13.7422    0.0000 </r>
       <r>   13.7422    0.0000 </r>
       <r>   14.0281    0.0000 </r>
      </set>
      <set comment="kpoint 2">
       <r>   -3.0480    1.0000 </r>
       <r>    4.3686    1.0000 </r>
       <r>    5.0354    1.0000 </r>
       <r>    5.1085    1.0000 </r>
       <r>    6.6222    1.0000 </r>
       <r>    6.7256    1.0000 </r>
       <r>    7.2822    1.0000 </r>
       <r>   12.1189   -0.0000 </r>
       <r>   12.1868   -0.0000 </r>
       <r>   12.9428   -0.0000 </r>
       <r>   13.3930   -0.0000 </r>
       <r>   13.4999   -0.0000 </r>
       <r>   13.7806    0.0000 </r>
       <r>   14.1512    0.0000 </r>
      </set>
      <set comment="kpoint 3">
       <r>   -2.9573    1.0000 </r>
       <r>    3.6440    1.0000 </r>
       <r>    5.1189    1.0000 </r>
       <r>    5.1920    1.0000 </r>
       <r>    6.7090    1.0000 </r>
       <r>    6.8122    1.0000 </r>
       <r>    8.1637    0.1965 </r>
       <r>   11.3851   -0.0000 </r>
       <r>   11.4533   -0.0000 </r>
       <r>   12.8971   -0.0000 </r>
       <r>   13.0037   -0.0000 </r>
       <r>   13.0277   -0.0000 </r>
       <r>   13.8576    0.0000 </r>
       <r>   14.2332    0.0000 </r>
      </set>
      <set comment="kpoint 4">
       <r>   -2.8213    1.0000 </r>
       <r>    2.9271    1.0000 </r>
       <r>    5.2442    1.0000 </r>
       <r>    5.3172    1.0000 </r>
       <r>    6.8385    1.0000 </r>
       <r>    6.9414    1.0000 </r>
       <r>    9.1158   -0.0000 </r>
       <r>   10.6819   -0.0000 </r>
       <r>   10.7503   -0.0000 </r>
       <r>   12.3254   -0.0000 </r>
       <r>   12.4311   -0.0000 </r>
       <r>   13.1547   -0.0000 </r>
       <r>   13.9730    0.0000 </r>
       <r>   14.3563    0.0000 </r>
      </set>
      <set comment="kpoint 5">
       <r>   -2.6403    1.0000 </r>
       <r>    2.2392    1.0000 </r>
       <r>    5.4113    1.0000 </r>
       <r>    5.4841    1.0000 </r>
       <r>    7.0099    1.0000 </r>
       <r>    7.1123    1.0000 </r>
       <r>   10.0169   -0.0000 </r>
       <r>   10.0857   -0.0000 </r>
       <r>   10.1170   -0.0000 </r>
       <r>   11.7371   -0.0000 </r>
       <r>   11.8418   -0.0000 </r>
       <r>   13.3239   -0.0000 </r>
       <r>   14.1268    0.0000 </r>
       <r>   14.5206    0.0000 </r>
      </set>
      <set comment="kpoint 6">
       <r>   -2.4144    1.0000 </r>
       <r>    1.5870    1.0000 </r>
       <r>    5.6201    1.0000 </r>
       <r>    5.6927    1.0000 </r>
       <r>    7.2214    1.0000 </r>
       <r>    7.3227    1.0000 </r>
       <r>    9.3928   -0.0000 </r>
       <r>    9.4618   -0.0000 </r>
       <r>   11.1601   -0.0000 </r>
       <r>   11.1602   -0.0000 </r>
       <r>   11.2634   -0.0000 </r>
       <r>   13.5349   -0.0000 </r>
       <r>   14.3192    0.0000 </r>
       <r>   14.7261    0.0000 </r>
      </set>
      <set comment="kpoint 7">
       <r>   -2.1437    1.0000 </r>
       <r>    0.9737    1.0000 </r>
       <r>    5.8706    1.0000 </r>
       <r>    5.9429    1.0000 </r>
       <r>    7.4694    1.0001 </r>
       <r>    7.5682    1.0008 </r>
       <r>    8.8122   -0.0000 </r>
       <r>    8.8808   -0.0000 </r>
       <r>   10.6100   -0.0000 </r>
       <r>   10.7113   -0.0000 </r>
       <r>   12.2420   -0.0000 </r>
       <r>   13.7878    0.0000 </r>
       <r>   14.5502    0.0000 </r>
       <r>   14.9732    0.0000 </r>
      </set>
      <set comment="kpoint 8">
       <r>   -1.8286    1.0000 </r>
       <r>    0.4008    1.0000 </r>
       <r>    6.1626    1.0000 </r>
       <r>    6.2347    1.0000 </r>
       <r>    7.7411    1.0175 </r>
       <r>    7.8291    1.0350 </r>
       <r>    8.2882   -0.0263 </r>
       <r>    8.3502   -0.0342 </r>
       <r>   10.1008   -0.0000 </r>
       <r>   10.1978   -0.0000 </r>
       <r>   13.3591   -0.0000 </r>
       <r>   14.0832    0.0000 </r>
       <r>   14.8199    0.0000 </r>
       <r>   15.2619    0.0000 </r>
      </set>
      <set comment="kpoint 9">
       <r>   -1.4693    1.0000 </r>
       <r>   -0.1307    1.0000 </r>
       <r>    6.4960    1.0000 </r>
       <r>    6.5676    1.0000 </r>
       <r>    7.7276    1.0148 </r>
       <r>    7.7839    1.0272 </r>
       <r>    8.1079    0.4071 </r>
       <r>    8.1788    0.1499 </r>
       <r>    9.6566   -0.0000 </r>
       <r>    9.7422   -0.0000 </r>
       <r>   14.3942    0.0000 </r>
       <r>   14.5355    0.0000 </r>
       <r>   15.1280    0.0000 </r>
       <r>   15.5961    0.0000 </r>
      </set>
      <set comment="kpoint 10">
       <r>   -1.0663    1.0000 </r>
       <r>   -0.6199    1.0000 </r>
[...]
       <r>    1.1992    1.0000 </r>
       <r>    1.6384    1.0000 </r>
       <r>    1.6384    1.0000 </r>
       <r>    2.0762    1.0000 </r>
       <r>    6.8606    1.0000 </r>
       <r>    7.2850    1.0000 </r>
       <r>    7.2850    1.0000 </r>
       <r>    7.7088    1.0114 </r>
       <r>   13.0296   -0.0000 </r>
       <r>   13.4359   -0.0000 </r>
       <r>   13.4359   -0.0000 </r>
       <r>   13.8415    0.0000 </r>
       <r>   17.3991    0.0000 </r>
       <r>   17.4856    0.0000 </r>
      </set>
      <set comment="kpoint 545">
       <r>    1.3769    1.0000 </r>
       <r>    1.8156    1.0000 </r>
       <r>    1.8156    1.0000 </r>
       <r>    2.2527    1.0000 </r>
       <r>    6.1864    1.0000 </r>
       <r>    6.6124    1.0000 </r>
       <r>    6.6124    1.0000 </r>
       <r>    7.0378    1.0000 </r>
       <r>   14.0024    0.0000 </r>
       <r>   14.4021    0.0000 </r>
       <r>   14.4021    0.0000 </r>
       <r>   14.8015    0.0000 </r>
       <r>   17.5447    0.0000 </r>
       <r>   17.6426    0.0000 </r>
      </set>
      <set comment="kpoint 546">
       <r>    1.5988    1.0000 </r>
       <r>    2.0367    1.0000 </r>
       <r>    2.0367    1.0000 </r>
       <r>    2.4729    1.0000 </r>
       <r>    5.5461    1.0000 </r>
       <r>    5.9733    1.0000 </r>
       <r>    5.9733    1.0000 </r>
       <r>    6.4001    1.0000 </r>
       <r>   15.0096    0.0000 </r>
       <r>   15.3994    0.0000 </r>
       <r>   15.3994    0.0000 </r>
       <r>   15.7897    0.0000 </r>
       <r>   17.7461    0.0000 </r>
       <r>   17.8380    0.0000 </r>
      </set>
      <set comment="kpoint 547">
       <r>    1.8645    1.0000 </r>
       <r>    2.3013    1.0000 </r>
       <r>    2.3013    1.0000 </r>
       <r>    2.7361    1.0000 </r>
       <r>    4.9440    1.0000 </r>
       <r>    5.3720    1.0000 </r>
       <r>    5.3720    1.0000 </r>
       <r>    5.7999    1.0000 </r>
       <r>   16.0407    0.0000 </r>
       <r>   16.4139    0.0000 </r>
       <r>   16.4139    0.0000 </r>
       <r>   16.7901    0.0000 </r>
       <r>   17.9811    0.0000 </r>
       <r>   18.0709    0.0000 </r>
      </set>
      <set comment="kpoint 548">
       <r>    2.1736    1.0000 </r>
       <r>    2.6089    1.0000 </r>
       <r>    2.6089    1.0000 </r>
       <r>    3.0405    1.0000 </r>
       <r>    4.3837    1.0000 </r>
       <r>    4.8109    1.0000 </r>
       <r>    4.8109    1.0000 </r>
       <r>    5.2394    1.0000 </r>
       <r>   17.0810    0.0000 </r>
       <r>   17.4220    0.0000 </r>
       <r>   17.4221    0.0000 </r>
       <r>   17.7760    0.0000 </r>
       <r>   18.2630    0.0000 </r>
       <r>   18.3391    0.0000 </r>
      </set>
      <set comment="kpoint 549">
       <r>    2.5255    1.0000 </r>
       <r>    2.9575    1.0000 </r>
       <r>    2.9575    1.0000 </r>
       <r>    3.3740    1.0000 </r>
       <r>    3.8785    1.0000 </r>
       <r>    4.2927    1.0000 </r>
       <r>    4.2927    1.0000 </r>
       <r>    4.7203    1.0000 </r>
       <r>   18.1040    0.0000 </r>
       <r>   18.3655    0.0000 </r>
       <r>   18.3704    0.0000 </r>
       <r>   18.5877    0.0000 </r>
       <r>   18.6376    0.0000 </r>
       <r>   18.6792    0.0000 </r>
      </set>
      <set comment="kpoint 550">
       <r>    2.9182    1.0000 </r>
       <r>    3.3347    1.0000 </r>
       <r>    3.3347    1.0000 </r>
       <r>    3.3385    1.0000 </r>
       <r>    3.8268    1.0000 </r>
       <r>    3.8306    1.0000 </r>
       <r>    3.8306    1.0000 </r>
       <r>    4.2449    1.0000 </r>
       <r>   18.9267    0.0000 </r>
       <r>   18.9300    0.0000 </r>
       <r>   18.9342    0.0000 </r>
       <r>   19.0141    0.0000 </r>
       <r>   19.0261    0.0000 </r>
       <r>   19.0746    0.0000 </r>
      </set>
     </set>
    </set>
   </array>
  </eigenvalues>
  <separator name="orbital magnetization" >
   <v name="MAGDIPOLOUT">      0.00000000      0.00000000      0.00000000</v>
  </separator>
  <dos>
   <i name="efermi">      8.08580078 </i>
   <total>
    <array>
     <dimension dim="1">gridpoints</dimension>
     <dimension dim="2">spin</dimension>
     <field>energy</field>
     <field>total</field>
     <field>integrated</field>
     <set>
      <set comment="spin 1">
       <r>    -5.0933     0.0000     0.0000 </r>
       <r>    -5.0061     0.0000     0.0000 </r>
       <r>    -4.9189     0.0000     0.0000 </r>
       <r>    -4.8316     0.0000     0.0000 </r>
       <r>    -4.7444    -0.0000    -0.0000 </r>
       <r>    -4.6572    -0.0000    -0.0000 </r>
       <r>    -4.5700    -0.0000    -0.0000 </r>
       <r>    -4.4827    -0.0000    -0.0000 </r>
       <r>    -4.3955    -0.0000    -0.0000 </r>
       <r>    -4.3083    -0.0000    -0.0000 </r>
       <r>    -4.2211    -0.0000    -0.0000 </r>
       <r>    -4.1338    -0.0000    -0.0000 </r>
       <r>    -4.0466    -0.0000    -0.0000 </r>
       <r>    -3.9594    -0.0000    -0.0000 </r>
       <r>    -3.8722    -0.0000    -0.0000 </r>
       <r>    -3.7849    -0.0000    -0.0000 </r>
       <r>    -3.6977    -0.0000    -0.0000 </r>
       <r>    -3.6105    -0.0000    -0.0000 </r>
       <r>    -3.5232    -0.0003    -0.0000 </r>
       <r>    -3.4360    -0.0013    -0.0001 </r>
       <r>    -3.3488    -0.0039    -0.0005 </r>
       <r>    -3.2616    -0.0052    -0.0009 </r>
       <r>    -3.1743     0.0054    -0.0005 </r>
       <r>    -3.0871     0.0416     0.0032 </r>
       <r>    -2.9999     0.1023     0.0121 </r>
       <r>    -2.9127     0.1684     0.0268 </r>
       <r>    -2.8254     0.2227     0.0462 </r>
       <r>    -2.7382     0.2636     0.0692 </r>
       <r>    -2.6510     0.2970     0.0951 </r>
       <r>    -2.5638     0.3261     0.1235 </r>
       <r>    -2.4765     0.3527     0.1543 </r>
       <r>    -2.3893     0.3798     0.1874 </r>
       <r>    -2.3021     0.4032     0.2226 </r>
       <r>    -2.2148     0.4226     0.2595 </r>
       <r>    -2.1276     0.4475     0.2985 </r>
       <r>    -2.0404     0.4720     0.3397 </r>
       <r>    -1.9532     0.4853     0.3820 </r>
       <r>    -1.8659     0.4999     0.4256 </r>
       <r>    -1.7787     0.5282     0.4717 </r>
       <r>    -1.6915     0.5534     0.5199 </r>
       <r>    -1.6043     0.5562     0.5684 </r>
       <r>    -1.5170     0.5620     0.6175 </r>
       <r>    -1.4298     0.5972     0.6696 </r>
       <r>    -1.3426     0.6282     0.7244 </r>
       <r>    -1.2554     0.6266     0.7790 </r>
       <r>    -1.1681     0.6236     0.8334 </r>
       <r>    -1.0809     0.6460     0.8897 </r>
       <r>    -0.9937     0.6797     0.9490 </r>
       <r>    -0.9064     0.7034     1.0104 </r>
       <r>    -0.8192     0.7081     1.0722 </r>
       <r>    -0.7320     0.6956     1.1328 </r>
       <r>    -0.6448     0.6966     1.1936 </r>
       <r>    -0.5575     0.7442     1.2585 </r>
       <r>    -0.4703     0.7970     1.3280 </r>
       <r>    -0.3831     0.7891     1.3969 </r>
       <r>    -0.2959     0.7479     1.4621 </r>
       <r>    -0.2086     0.7538     1.5279 </r>
       <r>    -0.1214     0.8100     1.5985 </r>
       <r>    -0.0342     0.8471     1.6724 </r>
       <r>     0.0530     0.8486     1.7464 </r>
       <r>     0.1403     0.8482     1.8204 </r>
       <r>     0.2275     0.8471     1.8943 </r>
       <r>     0.3147     0.8417     1.9677 </r>
       <r>     0.4019     0.8511     2.0420 </r>
       <r>     0.4892     0.8906     2.1196 </r>
       <r>     0.5764     0.9436     2.2019 </r>
       <r>     0.6636     0.9619     2.2858 </r>
       <r>     0.7509     0.9264     2.3667 </r>
       <r>     0.8381     0.8789     2.4433 </r>
       <r>     0.9253     0.8830     2.5203 </r>
       <r>     1.0125     0.9615     2.6042 </r>
       <r>     1.0998     1.0421     2.6951 </r>
       <r>     1.1870     1.0359     2.7855 </r>
       <r>     1.2742     0.9736     2.8704 </r>
       <r>     1.3614     0.9549     2.9537 </r>
       <r>     1.4487     0.9945     3.0404 </r>
       <r>     1.5359     1.0254     3.1299 </r>
       <r>     1.6231     1.0277     3.2195 </r>
       <r>     1.7103     1.0403     3.3102 </r>
       <r>     1.7976     1.0769     3.4042 </r>
       <r>     1.8848     1.1123     3.5012 </r>
       <r>     1.9720     1.1118     3.5982 </r>
       <r>     2.0593     1.0627     3.6909 </r>
       <r>     2.1465     1.0129     3.7792 </r>
       <r>     2.2337     1.0433     3.8702 </r>
       <r>     2.3209     1.1422     3.9699 </r>
       <r>     2.4082     1.2036     4.0748 </r>
       <r>     2.4954     1.2019     4.1797 </r>
       <r>     2.5826     1.1771     4.2824 </r>
       <r>     2.6698     1.1236     4.3804 </r>
       <r>     2.7571     1.0758     4.4742 </r>
       <r>     2.8443     1.1169     4.5716 </r>
       <r>     2.9315     1.2198     4.6780 </r>
       <r>     3.0187     1.2691     4.7887 </r>
       <r>     3.1060     1.2441     4.8972 </r>
       <r>     3.1932     1.2192     5.0036 </r>
       <r>     3.2804     1.2230     5.1103 </r>
       <r>     3.3677     1.2456     5.2189 </r>
       <r>     3.4549     1.2780     5.3304 </r>
       <r>     3.5421     1.2737     5.4415 </r>
       <r>     3.6293     1.2161     5.5476 </r>
       <r>     3.7166     1.1886     5.6512 </r>
       <r>     3.8038     1.2644     5.7615 </r>
       <r>     3.8910     1.3764     5.8816 </r>
       <r>     3.9782     1.4048     6.0041 </r>
       <r>     4.0655     1.3391     6.1209 </r>
       <r>     4.1527     1.2587     6.2307 </r>
       <r>     4.2399     1.2285     6.3379 </r>
       <r>     4.3271     1.2634     6.4481 </r>
       <r>     4.4144     1.3524     6.5660 </r>
       <r>     4.5016     1.4551     6.6930 </r>
       <r>     4.5888     1.4903     6.8230 </r>
       <r>     4.6760     1.4302     6.9477 </r>
       <r>     4.7633     1.3563     7.0660 </r>
       <r>     4.8505     1.3448     7.1833 </r>
       <r>     4.9377     1.3951     7.3050 </r>
       <r>     5.0250     1.4794     7.4340 </r>
       <r>     5.1122     1.5568     7.5698 </r>
       <r>     5.1994     1.5793     7.7076 </r>
       <r>     5.2866     1.5495     7.8428 </r>
       <r>     5.3739     1.5034     7.9739 </r>
       <r>     5.4611     1.4617     8.1014 </r>
       <r>     5.5483     1.4647     8.2292 </r>
       <r>     5.6355     1.5210     8.3618 </r>
       <r>     5.7228     1.5471     8.4968 </r>
       <r>     5.8100     1.4950     8.6272 </r>
       <r>     5.8972     1.4202     8.7511 </r>
       <r>     5.9844     1.3730     8.8708 </r>
       <r>     6.0717     1.3532     8.9888 </r>
       <r>     6.1589     1.3767     9.1089 </r>
       <r>     6.2461     1.4332     9.2339 </r>
       <r>     6.3334     1.4423     9.3598 </r>
       <r>     6.4206     1.3994     9.4818 </r>
       <r>     6.5078     1.3716     9.6015 </r>
       <r>     6.5950     1.3601     9.7201 </r>
       <r>     6.6823     1.3869     9.8411 </r>
       <r>     6.7695     1.5015     9.9720 </r>
       <r>     6.8567     1.6160    10.1130 </r>
       <r>     6.9439     1.6030    10.2528 </r>
       <r>     7.0312     1.5066    10.3842 </r>
       <r>     7.1184     1.4651    10.5120 </r>
       <r>     7.2056     1.5117    10.6439 </r>
       <r>     7.2928     1.5762    10.7814 </r>
       <r>     7.3801     1.6073    10.9216 </r>
       <r>     7.4673     1.5841    11.0598 </r>
       <r>     7.5545     1.5057    11.1911 </r>
       <r>     7.6417     1.4568    11.3182 </r>
       <r>     7.7290     1.5279    11.4514 </r>
       <r>     7.8162     1.6371    11.5942 </r>
       <r>     7.9034     1.6282    11.7363 </r>
       <r>     7.9907     1.5023    11.8673 </r>
       <r>     8.0779     1.3958    11.9890 </r>
       <r>     8.1651     1.4235    12.1132 </r>
       <r>     8.2523     1.6021    12.2530 </r>
       <r>     8.3396     1.8263    12.4123 </r>
       <r>     8.4268     1.9257    12.5802 </r>
       <r>     8.5140     1.8373    12.7405 </r>
       <r>     8.6012     1.6688    12.8861 </r>
       <r>     8.6885     1.5545    13.0216 </r>
       <r>     8.7757     1.5452    13.1564 </r>
       <r>     8.8629     1.6063    13.2965 </r>
       <r>     8.9501     1.6578    13.4411 </r>
       <r>     9.0374     1.6718    13.5870 </r>
       <r>     9.1246     1.6793    13.7334 </r>
       <r>     9.2118     1.6787    13.8799 </r>
       <r>     9.2991     1.6798    14.0264 </r>
       <r>     9.3863     1.7359    14.1778 </r>
       <r>     9.4735     1.8202    14.3366 </r>
       <r>     9.5607     1.8356    14.4967 </r>
       <r>     9.6480     1.7661    14.6507 </r>
       <r>     9.7352     1.6766    14.7970 </r>
       <r>     9.8224     1.6079    14.9372 </r>
       <r>     9.9096     1.5728    15.0744 </r>
       <r>     9.9969     1.6193    15.2157 </r>
       <r>    10.0841     1.7744    15.3705 </r>
       <r>    10.1713     1.9571    15.5412 </r>
       <r>    10.2585     2.0532    15.7203 </r>
       <r>    10.3458     1.9687    15.8920 </r>
       <r>    10.4330     1.7035    16.0406 </r>
       <r>    10.5202     1.5037    16.1717 </r>
       <r>    10.6075     1.6308    16.3140 </r>
       <r>    10.6947     1.9313    16.4824 </r>
       <r>    10.7819     2.0480    16.6611 </r>
       <r>    10.8691     1.9528    16.8314 </r>
       <r>    10.9564     1.8364    16.9916 </r>
       <r>    11.0436     1.7486    17.1441 </r>
       <r>    11.1308     1.7096    17.2933 </r>
       <r>    11.2180     1.7849    17.4489 </r>
       <r>    11.3053     1.8995    17.6146 </r>
       <r>    11.3925     1.9355    17.7835 </r>
       <r>    11.4797     1.9514    17.9537 </r>
       <r>    11.5669     2.0244    18.1303 </r>
       <r>    11.6542     2.0597    18.3099 </r>
       <r>    11.7414     1.9716    18.4819 </r>
       <r>    11.8286     1.8474    18.6430 </r>
       <r>    11.9158     1.8056    18.8005 </r>
       <r>    12.0031     1.8567    18.9625 </r>
       <r>    12.0903     1.9284    19.1307 </r>
       <r>    12.1775     1.9526    19.3010 </r>
       <r>    12.2648     1.9292    19.4693 </r>
       <r>    12.3520     1.9358    19.6381 </r>
       <r>    12.4392     2.0523    19.8171 </r>
       <r>    12.5264     2.2131    20.0102 </r>
       <r>    12.6137     2.2386    20.2055 </r>
       <r>    12.7009     2.0796    20.3868 </r>
       <r>    12.7881     1.8946    20.5521 </r>
       <r>    12.8753     1.8604    20.7144 </r>
       <r>    12.9626     1.9744    20.8866 </r>
       <r>    13.0498     2.0827    21.0683 </r>
       <r>    13.1370     2.1132    21.2526 </r>
       <r>    13.2242     2.1415    21.4394 </r>
       <r>    13.3115     2.1892    21.6304 </r>
       <r>    13.3987     2.1971    21.8220 </r>
       <r>    13.4859     2.1844    22.0125 </r>
       <r>    13.5732     2.1948    22.2040 </r>
       <r>    13.6604     2.2170    22.3974 </r>
       <r>    13.7476     2.2812    22.5963 </r>
       <r>    13.8348     2.4111    22.8067 </r>
       <r>    13.9221     2.4948    23.0243 </r>
       <r>    14.0093     2.4183    23.2352 </r>
       <r>    14.0965     2.2374    23.4304 </r>
       <r>    14.1837     2.1146    23.6148 </r>
       <r>    14.2710     2.1417    23.8016 </r>
       <r>    14.3582     2.2454    23.9975 </r>
       <r>    14.4454     2.2907    24.1973 </r>
       <r>    14.5326     2.2332    24.3921 </r>
       <r>    14.6199     2.1161    24.5767 </r>
       <r>    14.7071     2.0120    24.7522 </r>
       <r>    14.7943     1.9809    24.9250 </r>
       <r>    14.8816     1.9987    25.0993 </r>
       <r>    14.9688     1.9996    25.2737 </r>
       <r>    15.0560     1.9976    25.4480 </r>
       <r>    15.1432     2.0171    25.6239 </r>
       <r>    15.2305     1.9541    25.7944 </r>
       <r>    15.3177     1.7149    25.9440 </r>
       <r>    15.4049     1.4266    26.0684 </r>
       <r>    15.4921     1.3160    26.1832 </r>
       <r>    15.5794     1.4275    26.3077 </r>
       <r>    15.6666     1.5789    26.4454 </r>
       <r>    15.7538     1.5658    26.5820 </r>
       <r>    15.8410     1.3632    26.7009 </r>
       <r>    15.9283     1.1180    26.7984 </r>
       <r>    16.0155     0.9717    26.8832 </r>
       <r>    16.1027     0.9341    26.9647 </r>
       <r>    16.1899     0.9174    27.0447 </r>
       <r>    16.2772     0.8590    27.1196 </r>
       <r>    16.3644     0.7872    27.1883 </r>
       <r>    16.4516     0.7544    27.2541 </r>
       <r>    16.5389     0.7497    27.3195 </r>
       <r>    16.6261     0.7234    27.3826 </r>
       <r>    16.7133     0.6582    27.4400 </r>
       <r>    16.8005     0.5738    27.4900 </r>
       <r>    16.8878     0.5068    27.5342 </r>
       <r>    16.9750     0.4756    27.5757 </r>
       <r>    17.0622     0.4443    27.6145 </r>
       <r>    17.1494     0.3894    27.6485 </r>
       <r>    17.2367     0.3670    27.6805 </r>
       <r>    17.3239     0.4068    27.7160 </r>
       <r>    17.4111     0.4297    27.7534 </r>
       <r>    17.4983     0.3836    27.7869 </r>
       <r>    17.5856     0.3231    27.8151 </r>
       <r>    17.6728     0.2826    27.8397 </r>
       <r>    17.7600     0.2366    27.8604 </r>
       <r>    17.8473     0.1949    27.8774 </r>
       <r>    17.9345     0.1887    27.8938 </r>
       <r>    18.0217     0.1933    27.9107 </r>
       <r>    18.1089     0.1690    27.9254 </r>
       <r>    18.1962     0.1322    27.9370 </r>
       <r>    18.2834     0.1174    27.9472 </r>
       <r>    18.3706     0.1127    27.9570 </r>
       <r>    18.4578     0.0939    27.9652 </r>
       <r>    18.5451     0.0767    27.9719 </r>
       <r>    18.6323     0.0756    27.9785 </r>
       <r>    18.7195     0.0674    27.9844 </r>
       <r>    18.8067     0.0440    27.9882 </r>
       <r>    18.8940     0.0317    27.9910 </r>
       <r>    18.9812     0.0375    27.9943 </r>
       <r>    19.0684     0.0381    27.9976 </r>
       <r>    19.1557     0.0238    27.9997 </r>
       <r>    19.2429     0.0072    28.0003 </r>
       <r>    19.3301    -0.0007    28.0002 </r>
       <r>    19.4173    -0.0016    28.0001 </r>
       <r>    19.5046    -0.0007    28.0000 </r>
       <r>    19.5918    -0.0002    28.0000 </r>
       <r>    19.6790    -0.0000    28.0000 </r>
       <r>    19.7662    -0.0000    28.0000 </r>
       <r>    19.8535    -0.0000    28.0000 </r>
       <r>    19.9407    -0.0000    28.0000 </r>
       <r>    20.0279    -0.0000    28.0000 </r>
       <r>    20.1151    -0.0000    28.0000 </r>
       <r>    20.2024    -0.0000    28.0000 </r>
       <r>    20.2896    -0.0000    28.0000 </r>
       <r>    20.3768    -0.0000    28.0000 </r>
       <r>    20.4640     0.0000    28.0000 </r>
       <r>    20.5513     0.0000    28.0000 </r>
       <r>    20.6385     0.0000    28.0000 </r>
       <r>    20.7257     0.0000    28.0000 </r>
       <r>    20.8130     0.0000    28.0000 </r>
       <r>    20.9002     0.0000    28.0000 </r>
       <r>    20.9874     0.0000    28.0000 </r>
       <r>    21.0746     0.0000    28.0000 </r>
      </set>
     </set>
    </array>
   </total>
  </dos>
 </calculation>
 <structure name="finalpos" >
  <crystal>
   <varray name="basis" >
    <v>       4.03892969       0.00000000       0.00000000 </v>
    <v>      -0.00000000       4.01868430       0.00000000 </v>
    <v>       0.00000000       0.00000000       4.03892969 </v>
   </varray>
   <i name="volume">     65.55660844 </i>
   <varray name="rec_basis" >
    <v>       0.24759035       0.00000000      -0.00000000 </v>
    <v>       0.00000000       0.24883766      -0.00000000 </v>
    <v>       0.00000000      -0.00000000       0.24759035 </v>
   </varray>
  </crystal>
  <varray name="positions" >
   <v>       0.00000000       0.00000000       0.00000000 </v>
   <v>       0.00000000       0.50000000       0.50000000 </v>
   <v>       0.50000000       0.00000000       0.50000000 </v>
   <v>       0.50000000       0.50000000       0.00000000 </v>
  </varray>
 </structure>
</modeling>
