ITEM: TIMESTEP
0
ITEM: NUMBER OF ATOMS
4
ITEM: BOX BOUNDS xy xz yz pp pp pp
0.0000000000000000e+00 4.0369359481000000e+00 0.0000000000000000e+00
0.0000000000000000e+00 4.0369359481000000e+00 0.0000000000000000e+00
0.0000000000000000e+00 4.0771054543999998e+00 0.0000000000000000e+00
ITEM: ATOMS id type xs ys zs fx fy fz
1 1 0 0 0 2.30419e-10 2.30419e-10 -4.92509e-18
4 1 0.5 0 0.5 -2.30419e-10 2.30419e-10 -1.77828e-17
3 1 0.5 0.5 0 -2.30419e-10 -2.30419e-10 7.33823e-17
2 1 0 0.5 0.5 2.30419e-10 -2.30419e-10 -8.92008e-18
ITEM: TIMESTEP
1
ITEM: NUMBER OF ATOMS
4
ITEM: BOX BOUNDS xy xz yz pp pp pp
0.0000000000000000e+00 4.0369359481000000e+00 0.0000000000000000e+00
0.0000000000000000e+00 4.0369359481000000e+00 0.0000000000000000e+00
0.0000000000000000e+00 4.0771054543999998e+00 0.0000000000000000e+00
ITEM: ATOMS id type xs ys zs fx fy fz
1 1 6.19286e-12 6.19286e-12 0 -1.66533e-16 -1.00716e-16 1.28607e-16
4 1 0.5 6.19286e-12 0.5 1.80411e-16 -2.49468e-16 -2.18485e-16
3 1 0.5 0.5 1.95283e-18 2.22045e-16 8.08815e-17 1.5027e-16
2 1 6.19286e-12 0.5 0.5 -1.52656e-16 2.46446e-16 -7.38289e-17
