 running   14 mpi-ranks, with    2 threads/rank, on    1 nodes
 distrk:  each k-point on   14 cores,    1 groups
 distr:  one band on    1 cores,   14 groups
 vasp.6.4.2 20Jul23 (build Apr 22 2024 22:35:45) complex                         
 POSCAR found type information on POSCAR Al
 POSCAR found :  1 types and       4 ions
 scaLAPACK will be used
 -----------------------------------------------------------------------------
|                                                                             |
|               ----> ADVICE to this user running VASP <----                  |
|                                                                             |
|     You have a (more or less) 'small supercell' and for smaller cells       |
|     it is recommended to use the reciprocal-space projection scheme!        |
|     The real-space optimization is not efficient for small cells and it     |
|     is also less accurate ...                                               |
|     Therefore, set LREAL=.FALSE. in the INCAR file.                         |
|                                                                             |
 -----------------------------------------------------------------------------

 LDA part: xc-table for Pade appr. of Perdew
 POSCAR, INCAR and KPOINTS ok, starting setup
 FFT: planning ... GRIDC
 FFT: planning ... GRID_SOFT
 FFT: planning ... GRID
 WAVECAR not read
 entering main loop
       N       E                     dE             d eps       ncg     rms          rms(c)
DAV:   1     0.609552435942E+01    0.60955E+01   -0.43866E+03 10374   0.552E+02
DAV:   2    -0.883869316288E+01   -0.14934E+02   -0.14545E+02 15302   0.594E+01
DAV:   3    -0.890123706240E+01   -0.62544E-01   -0.61991E-01 12950   0.501E+00
DAV:   4    -0.890136157123E+01   -0.12451E-03   -0.12451E-03 16842   0.203E-01
DAV:   5    -0.890136161698E+01   -0.45749E-07   -0.44090E-07 13314   0.289E-03    0.568E+00
RMM:   6    -0.872947925588E+01    0.17188E+00   -0.22599E-03 10192   0.369E-01    0.335E+00
RMM:   7    -0.862001878514E+01    0.10946E+00   -0.11554E-02 10192   0.782E-01    0.550E-01
RMM:   8    -0.862028123282E+01   -0.26245E-03   -0.14937E-03 10192   0.297E-01    0.900E-01
RMM:   9    -0.861991981305E+01    0.36142E-03   -0.47030E-04 10192   0.117E-01    0.416E-01
RMM:  10    -0.861991061197E+01    0.92011E-05   -0.11195E-04 10192   0.654E-02    0.308E-01
RMM:  11    -0.861991252601E+01   -0.19140E-05   -0.64869E-06 10143   0.176E-02    0.405E-01
RMM:  12    -0.861990764625E+01    0.48798E-05   -0.11062E-06  7316   0.785E-03    0.143E-01
RMM:  13    -0.861990611031E+01    0.15359E-05   -0.25092E-07  6439   0.304E-03    0.800E-02
RMM:  14    -0.861990410346E+01    0.20068E-05   -0.10062E-07  6143   0.224E-03    0.200E-02
RMM:  15    -0.861990331080E+01    0.79266E-06   -0.19126E-08  5155   0.121E-03
   1 F= -.86199033E+01 E0= -.86195948E+01  d E =-.861990E+01
 curvature:   0.00 expect dE= 0.000E+00 dE for cont linesearch  0.000E+00
 trial: gam= 0.00000 g(F)=  0.140E-62 g(S)=  0.417E-30 ort = 0.000E+00 (trialstep = 0.100E+01)
 search vector abs. value=  0.100E-09
 reached required accuracy - stopping structural energy minimisation
