 vasp.6.4.2 20Jul23 (build Apr 22 2024 22:35:45) complex                         
 executed on             LinuxGNU date 2024.05.26  15:35:44
 running   14 mpi-ranks, with    2 threads/rank, on    1 nodes
 distrk:  each k-point on   14 cores,    1 groups
 distr:  one band on NCORE=   1 cores,   14 groups


--------------------------------------------------------------------------------------------------------


 INCAR:
   ALGO = Fast
   EDIFF = 1e-06
   ENCUT = 400
   IBRION = 2
   ISIF = 4
   ISMEAR = 1
   KSPACING = 0.08
   LCHARG = False
   LREAL = Auto
   LWAVE = False
   NELM = 60
   NELMIN = 4
   NSW = 100
   PREC = Accurate
   SIGMA = 0.2
   SYSTEM = Al fcc relaxation

 POTCAR:    PAW_PBE Al 04Jan2001                  
 POTCAR:    PAW_PBE Al 04Jan2001                  
   SHA256 =  17880443556af62b473fe41b62a467bd001ad55d2cabe504a3f22e34d4e9db96 Al/POTCAR             
   COPYR  = (c) Copyright 04Jan2001 Georg Kresse                                                    
   COPYR  = This file is part of the software VASP. Any use, copying, and all other rights are regul
   COPYR  = If you do not have a valid VASP license, you may not use, copy or distribute this file. 
   VRHFIN =Al: s2p1                                                                                 
   LEXCH  = PE                                                                                      
   EATOM  =    53.5387 eV,    3.9350 Ry                                                             
                                                                                                    
   TITEL  = PAW_PBE Al 04Jan2001                                                                    
   LULTRA =        F    use ultrasoft PP ?                                                          
   IUNSCR =        1    unscreen: 0-lin 1-nonlin 2-no                                               
   RPACOR =    1.500    partial core radius                                                         
   POMASS =   26.981; ZVAL   =    3.000    mass and valenz                                          
   RCORE  =    1.900    outmost cutoff radius                                                       
   RWIGS  =    2.650; RWIGS  =    1.402    wigner-seitz radius (au A)                               
   ENMAX  =  240.300; ENMIN  =  180.225 eV                                                          
   ICORE  =        2    local potential                                                             
   LCOR   =        T    correct aug charges                                                         
   LPAW   =        T    paw PP                                                                      
   EAUG   =  291.052                                                                                
   DEXC   =    0.000                                                                                
   RMAX   =    1.939    core radius for proj-oper                                                   
   RAUG   =    1.300    factor for augmentation sphere                                              
   RDEP   =    1.966    radius for radial grids                                                     
   RDEPT  =    1.856    core radius for aug-charge                                                  
                                                                                                    
   Atomic configuration                                                                             
    6 entries                                                                                       
     n  l   j            E        occ.                                                              
     1  0  0.50     -1511.1048   2.0000                                                             
     2  0  0.50      -108.1629   2.0000                                                             
     2  1  1.50       -69.6402   6.0000                                                             
     3  0  0.50        -7.7528   2.0000                                                             
     3  1  1.50        -2.7121   1.0000                                                             
     3  2  2.50        -2.7212   0.0000                                                             
   Description                                                                                      
     l       E           TYP  RCUT    TYP  RCUT                                                     
     0     -7.7528455     23  1.900                                                                 
     0     -3.3096929     23  1.900                                                                 
     1     -2.7120682     23  1.900                                                                 
     1     13.6058260     23  1.900                                                                 
     2     -2.7211652      7  1.900                                                                 
  local pseudopotential read in
  partial core-charges read in
  partial kinetic energy density read in
  atomic valenz-charges read in
  non local Contribution for L=           0  read in
    real space projection operators read in
  non local Contribution for L=           0  read in
    real space projection operators read in
  non local Contribution for L=           1  read in
    real space projection operators read in
  non local Contribution for L=           1  read in
    real space projection operators read in
    PAW grid and wavefunctions read in

   number of l-projection  operators is LMAX  =           4
   number of lm-projection operators is LMMAX =           8

 -----------------------------------------------------------------------------
|                                                                             |
|               ----> ADVICE to this user running VASP <----                  |
|                                                                             |
|     You have a (more or less) 'small supercell' and for smaller cells       |
|     it is recommended to use the reciprocal-space projection scheme!        |
|     The real-space optimization is not efficient for small cells and it     |
|     is also less accurate ...                                               |
|     Therefore, set LREAL=.FALSE. in the INCAR file.                         |
|                                                                             |
 -----------------------------------------------------------------------------

 Optimization of the real space projectors (new method)

 maximal supplied QI-value         = 19.84
 optimisation between [QCUT,QGAM] = [ 10.12, 20.44] = [ 28.68,116.96] Ry 
 Optimized for a Real-space Cutoff    1.38 Angstroem

   l    n(q)    QCUT    max X(q) W(low)/X(q) W(high)/X(q)  e(spline) 
   0      8    10.119   176.870    0.39E-04    0.93E-04    0.54E-07
   0      8    10.119   105.762    0.37E-04    0.91E-04    0.53E-07
   1      8    10.119    55.370    0.18E-03    0.13E-03    0.19E-06
   1      8    10.119    20.208    0.17E-03    0.12E-03    0.18E-06
  PAW_PBE Al 04Jan2001                  :
 energy of atom  1       EATOM=  -53.5387
 kinetic energy error for atom=    0.0005 (will be added to EATOM!!)


 POSCAR: Al4
  positions in direct lattice
  velocities in cartesian coordinates
 exchange correlation table for  LEXCH =        8
   RHO(1)=    0.500       N(1)  =     2000
   RHO(2)=  100.500       N(2)  =     4000



--------------------------------------------------------------------------------------------------------


 ion  position               nearest neighbor table
   1  0.000  0.000  0.000-   2 2.41   3 2.41   4 2.41   2 2.41   3 2.41   2 2.41   4 2.41   2 2.41
                             3 2.41   4 2.41   3 2.41   4 2.41
   2  0.000  0.500  0.500-   1 2.41   3 2.41   4 2.41   1 2.41   4 2.41   1 2.41   3 2.41   1 2.41
                             3 2.41   4 2.41   4 2.41   3 2.41
   3  0.500  0.000  0.500-   1 2.41   2 2.41   4 2.41   1 2.41   4 2.41   2 2.41   4 2.41   4 2.41
                             1 2.41   2 2.41   1 2.41   2 2.41
   4  0.500  0.500  0.000-   1 2.41   2 2.41   3 2.41   2 2.41   3 2.41   1 2.41   3 2.41   3 2.41
                             1 2.41   2 2.41   2 2.41   1 2.41

  LATTYP: Found a simple cubic cell.
 ALAT       =     3.4065652361
  
  Lattice vectors:
  
 A1 = (   3.4065652361,   0.0000000000,   0.0000000000)
 A2 = (  -0.0000000000,   3.4065652361,   0.0000000000)
 A3 = (   0.0000000000,   0.0000000000,   3.4065652361)


Analysis of symmetry for initial positions (statically):
=====================================================================
 Subroutine PRICEL returns following result:
 
  LATTYP: Found a face centered cubic cell.
 ALAT       =     3.4065652361
  
  Lattice vectors:
  
 A1 = (   1.7032826180,  -1.7032826180,   0.0000000000)
 A2 = (   1.7032826180,   0.0000000000,   1.7032826180)
 A3 = (   0.0000000000,  -1.7032826180,   1.7032826180)
 
   4 primitive cells build up your supercell.
 

 Routine SETGRP: Setting up the symmetry group for a 
 simple cubic supercell.


 Subroutine GETGRP returns: Found 48 space group operations
 (whereof 48 operations were pure point group operations)
 out of a pool of 48 trial point group operations.


The static configuration has the point symmetry O_h .


Analysis of symmetry for dynamics (positions and initial velocities):
=====================================================================
 Subroutine PRICEL returns following result:
 
  LATTYP: Found a face centered cubic cell.
 ALAT       =     3.4065652361
  
  Lattice vectors:
  
 A1 = (   1.7032826180,  -1.7032826180,   0.0000000000)
 A2 = (   1.7032826180,   0.0000000000,   1.7032826180)
 A3 = (   0.0000000000,  -1.7032826180,   1.7032826180)
 
   4 primitive cells build up your supercell.
 

 Routine SETGRP: Setting up the symmetry group for a 
 simple cubic supercell.


 Subroutine GETGRP returns: Found 48 space group operations
 (whereof 48 operations were pure point group operations)
 out of a pool of 48 trial point group operations.


The dynamic configuration has the point symmetry O_h .


 Subroutine INISYM returns: Found 48 space group operations
 (whereof 48 operations are pure point group operations),
 and found     4 'primitive' translations


----------------------------------------------------------------------------------------

                                     Primitive cell                                     

  volume of cell :       9.8830

  direct lattice vectors                    reciprocal lattice vectors
     1.703282618 -1.703282618  0.000000000     0.293550815 -0.293550815 -0.293550815
     1.703282618  0.000000000  1.703282618     0.293550815  0.293550815  0.293550815
     0.000000000 -1.703282618  1.703282618    -0.293550815 -0.293550815  0.293550815

  length of vectors
     2.408805379  2.408805379  2.408805379     0.508444925  0.508444925  0.508444925

  position of ions in fractional coordinates (direct lattice)
     0.000000000  0.000000000  0.000000000

  ion indices of the primitive-cell ions
   primitive index   ion index
                 1           1

----------------------------------------------------------------------------------------



 KPOINTS: Automatic kpoint scheme                 

Automatic generation of k-mesh.
 Grid dimensions read from file:
 generate k-points for:   24   24   24

 Generating k-lattice:

  Cartesian coordinates                     Fractional coordinates (reciprocal lattice)
     0.012231284  0.000000000 -0.000000000     0.041666667 -0.000000000  0.000000000
     0.000000000  0.012231284  0.000000000     0.000000000  0.041666667  0.000000000
    -0.000000000 -0.000000000  0.012231284     0.000000000  0.000000000  0.041666667

  Length of vectors
     0.012231284  0.012231284  0.012231284

  Shift w.r.t. Gamma in fractional coordinates (k-lattice)
     0.500000000  0.500000000  0.500000000

 
 Subroutine IBZKPT returns following result:
 ===========================================
 
 Found    364 irreducible k-points:
 
 Following reciprocal coordinates:
            Coordinates               Weight
  0.020833  0.020833  0.020833      8.000000
  0.062500  0.020833  0.020833     24.000000
  0.104167  0.020833  0.020833     24.000000
  0.145833  0.020833  0.020833     24.000000
  0.187500  0.020833  0.020833     24.000000
  0.229167  0.020833  0.020833     24.000000
  0.270833  0.020833  0.020833     24.000000
  0.312500  0.020833  0.020833     24.000000
  0.354167  0.020833  0.020833     24.000000
  0.395833  0.020833  0.020833     24.000000
  0.437500  0.020833  0.020833     24.000000
  0.479167  0.020833  0.020833     24.000000
  0.062500  0.062500  0.020833     24.000000
  0.104167  0.062500  0.020833     48.000000
  0.145833  0.062500  0.020833     48.000000
  0.187500  0.062500  0.020833     48.000000
  0.229167  0.062500  0.020833     48.000000
  0.270833  0.062500  0.020833     48.000000
  0.312500  0.062500  0.020833     48.000000
  0.354167  0.062500  0.020833     48.000000
  0.395833  0.062500  0.020833     48.000000
  0.437500  0.062500  0.020833     48.000000
  0.479167  0.062500  0.020833     48.000000
  0.104167  0.104167  0.020833     24.000000
  0.145833  0.104167  0.020833     48.000000
  0.187500  0.104167  0.020833     48.000000
  0.229167  0.104167  0.020833     48.000000
  0.270833  0.104167  0.020833     48.000000
  0.312500  0.104167  0.020833     48.000000
  0.354167  0.104167  0.020833     48.000000
  0.395833  0.104167  0.020833     48.000000
  0.437500  0.104167  0.020833     48.000000
  0.479167  0.104167  0.020833     48.000000
  0.145833  0.145833  0.020833     24.000000
  0.187500  0.145833  0.020833     48.000000
  0.229167  0.145833  0.020833     48.000000
  0.270833  0.145833  0.020833     48.000000
  0.312500  0.145833  0.020833     48.000000
  0.354167  0.145833  0.020833     48.000000
  0.395833  0.145833  0.020833     48.000000
  0.437500  0.145833  0.020833     48.000000
  0.479167  0.145833  0.020833     48.000000
  0.187500  0.187500  0.020833     24.000000
  0.229167  0.187500  0.020833     48.000000
  0.270833  0.187500  0.020833     48.000000
  0.312500  0.187500  0.020833     48.000000
  0.354167  0.187500  0.020833     48.000000
  0.395833  0.187500  0.020833     48.000000
  0.437500  0.187500  0.020833     48.000000
  0.479167  0.187500  0.020833     48.000000
  0.229167  0.229167  0.020833     24.000000
  0.270833  0.229167  0.020833     48.000000
  0.312500  0.229167  0.020833     48.000000
  0.354167  0.229167  0.020833     48.000000
  0.395833  0.229167  0.020833     48.000000
  0.437500  0.229167  0.020833     48.000000
  0.479167  0.229167  0.020833     48.000000
  0.270833  0.270833  0.020833     24.000000
  0.312500  0.270833  0.020833     48.000000
  0.354167  0.270833  0.020833     48.000000
  0.395833  0.270833  0.020833     48.000000
  0.437500  0.270833  0.020833     48.000000
  0.479167  0.270833  0.020833     48.000000
  0.312500  0.312500  0.020833     24.000000
  0.354167  0.312500  0.020833     48.000000
  0.395833  0.312500  0.020833     48.000000
  0.437500  0.312500  0.020833     48.000000
  0.479167  0.312500  0.020833     48.000000
  0.354167  0.354167  0.020833     24.000000
  0.395833  0.354167  0.020833     48.000000
  0.437500  0.354167  0.020833     48.000000
  0.479167  0.354167  0.020833     48.000000
  0.395833  0.395833  0.020833     24.000000
  0.437500  0.395833  0.020833     48.000000
  0.479167  0.395833  0.020833     48.000000
  0.437500  0.437500  0.020833     24.000000
  0.479167  0.437500  0.020833     48.000000
  0.479167  0.479167  0.020833     24.000000
  0.062500  0.062500  0.062500      8.000000
  0.104167  0.062500  0.062500     24.000000
  0.145833  0.062500  0.062500     24.000000
  0.187500  0.062500  0.062500     24.000000
  0.229167  0.062500  0.062500     24.000000
  0.270833  0.062500  0.062500     24.000000
  0.312500  0.062500  0.062500     24.000000
  0.354167  0.062500  0.062500     24.000000
  0.395833  0.062500  0.062500     24.000000
  0.437500  0.062500  0.062500     24.000000
  0.479167  0.062500  0.062500     24.000000
  0.104167  0.104167  0.062500     24.000000
  0.145833  0.104167  0.062500     48.000000
  0.187500  0.104167  0.062500     48.000000
  0.229167  0.104167  0.062500     48.000000
  0.270833  0.104167  0.062500     48.000000
  0.312500  0.104167  0.062500     48.000000
  0.354167  0.104167  0.062500     48.000000
  0.395833  0.104167  0.062500     48.000000
  0.437500  0.104167  0.062500     48.000000
  0.479167  0.104167  0.062500     48.000000
  0.145833  0.145833  0.062500     24.000000
  0.187500  0.145833  0.062500     48.000000
  0.229167  0.145833  0.062500     48.000000
  0.270833  0.145833  0.062500     48.000000
  0.312500  0.145833  0.062500     48.000000
  0.354167  0.145833  0.062500     48.000000
  0.395833  0.145833  0.062500     48.000000
  0.437500  0.145833  0.062500     48.000000
  0.479167  0.145833  0.062500     48.000000
  0.187500  0.187500  0.062500     24.000000
  0.229167  0.187500  0.062500     48.000000
  0.270833  0.187500  0.062500     48.000000
  0.312500  0.187500  0.062500     48.000000
  0.354167  0.187500  0.062500     48.000000
  0.395833  0.187500  0.062500     48.000000
  0.437500  0.187500  0.062500     48.000000
  0.479167  0.187500  0.062500     48.000000
  0.229167  0.229167  0.062500     24.000000
  0.270833  0.229167  0.062500     48.000000
  0.312500  0.229167  0.062500     48.000000
  0.354167  0.229167  0.062500     48.000000
  0.395833  0.229167  0.062500     48.000000
  0.437500  0.229167  0.062500     48.000000
  0.479167  0.229167  0.062500     48.000000
  0.270833  0.270833  0.062500     24.000000
  0.312500  0.270833  0.062500     48.000000
  0.354167  0.270833  0.062500     48.000000
  0.395833  0.270833  0.062500     48.000000
  0.437500  0.270833  0.062500     48.000000
  0.479167  0.270833  0.062500     48.000000
  0.312500  0.312500  0.062500     24.000000
  0.354167  0.312500  0.062500     48.000000
  0.395833  0.312500  0.062500     48.000000
  0.437500  0.312500  0.062500     48.000000
  0.479167  0.312500  0.062500     48.000000
  0.354167  0.354167  0.062500     24.000000
  0.395833  0.354167  0.062500     48.000000
  0.437500  0.354167  0.062500     48.000000
  0.479167  0.354167  0.062500     48.000000
  0.395833  0.395833  0.062500     24.000000
  0.437500  0.395833  0.062500     48.000000
  0.479167  0.395833  0.062500     48.000000
  0.437500  0.437500  0.062500     24.000000
  0.479167  0.437500  0.062500     48.000000
  0.479167  0.479167  0.062500     24.000000
  0.104167  0.104167  0.104167      8.000000
  0.145833  0.104167  0.104167     24.000000
  0.187500  0.104167  0.104167     24.000000
  0.229167  0.104167  0.104167     24.000000
  0.270833  0.104167  0.104167     24.000000
  0.312500  0.104167  0.104167     24.000000
  0.354167  0.104167  0.104167     24.000000
  0.395833  0.104167  0.104167     24.000000
  0.437500  0.104167  0.104167     24.000000
  0.479167  0.104167  0.104167     24.000000
  0.145833  0.145833  0.104167     24.000000
  0.187500  0.145833  0.104167     48.000000
  0.229167  0.145833  0.104167     48.000000
  0.270833  0.145833  0.104167     48.000000
  0.312500  0.145833  0.104167     48.000000
  0.354167  0.145833  0.104167     48.000000
  0.395833  0.145833  0.104167     48.000000
  0.437500  0.145833  0.104167     48.000000
  0.479167  0.145833  0.104167     48.000000
  0.187500  0.187500  0.104167     24.000000
  0.229167  0.187500  0.104167     48.000000
  0.270833  0.187500  0.104167     48.000000
  0.312500  0.187500  0.104167     48.000000
  0.354167  0.187500  0.104167     48.000000
  0.395833  0.187500  0.104167     48.000000
  0.437500  0.187500  0.104167     48.000000
  0.479167  0.187500  0.104167     48.000000
  0.229167  0.229167  0.104167     24.000000
  0.270833  0.229167  0.104167     48.000000
  0.312500  0.229167  0.104167     48.000000
  0.354167  0.229167  0.104167     48.000000
  0.395833  0.229167  0.104167     48.000000
  0.437500  0.229167  0.104167     48.000000
  0.479167  0.229167  0.104167     48.000000
  0.270833  0.270833  0.104167     24.000000
  0.312500  0.270833  0.104167     48.000000
  0.354167  0.270833  0.104167     48.000000
  0.395833  0.270833  0.104167     48.000000
  0.437500  0.270833  0.104167     48.000000
  0.479167  0.270833  0.104167     48.000000
  0.312500  0.312500  0.104167     24.000000
  0.354167  0.312500  0.104167     48.000000
  0.395833  0.312500  0.104167     48.000000
  0.437500  0.312500  0.104167     48.000000
  0.479167  0.312500  0.104167     48.000000
  0.354167  0.354167  0.104167     24.000000
  0.395833  0.354167  0.104167     48.000000
  0.437500  0.354167  0.104167     48.000000
  0.479167  0.354167  0.104167     48.000000
  0.395833  0.395833  0.104167     24.000000
  0.437500  0.395833  0.104167     48.000000
  0.479167  0.395833  0.104167     48.000000
  0.437500  0.437500  0.104167     24.000000
  0.479167  0.437500  0.104167     48.000000
  0.479167  0.479167  0.104167     24.000000
  0.145833  0.145833  0.145833      8.000000
  0.187500  0.145833  0.145833     24.000000
  0.229167  0.145833  0.145833     24.000000
  0.270833  0.145833  0.145833     24.000000
  0.312500  0.145833  0.145833     24.000000
  0.354167  0.145833  0.145833     24.000000
  0.395833  0.145833  0.145833     24.000000
  0.437500  0.145833  0.145833     24.000000
  0.479167  0.145833  0.145833     24.000000
  0.187500  0.187500  0.145833     24.000000
  0.229167  0.187500  0.145833     48.000000
  0.270833  0.187500  0.145833     48.000000
  0.312500  0.187500  0.145833     48.000000
  0.354167  0.187500  0.145833     48.000000
  0.395833  0.187500  0.145833     48.000000
  0.437500  0.187500  0.145833     48.000000
  0.479167  0.187500  0.145833     48.000000
  0.229167  0.229167  0.145833     24.000000
  0.270833  0.229167  0.145833     48.000000
  0.312500  0.229167  0.145833     48.000000
  0.354167  0.229167  0.145833     48.000000
  0.395833  0.229167  0.145833     48.000000
  0.437500  0.229167  0.145833     48.000000
  0.479167  0.229167  0.145833     48.000000
  0.270833  0.270833  0.145833     24.000000
  0.312500  0.270833  0.145833     48.000000
  0.354167  0.270833  0.145833     48.000000
  0.395833  0.270833  0.145833     48.000000
  0.437500  0.270833  0.145833     48.000000
  0.479167  0.270833  0.145833     48.000000
  0.312500  0.312500  0.145833     24.000000
  0.354167  0.312500  0.145833     48.000000
  0.395833  0.312500  0.145833     48.000000
  0.437500  0.312500  0.145833     48.000000
  0.479167  0.312500  0.145833     48.000000
  0.354167  0.354167  0.145833     24.000000
  0.395833  0.354167  0.145833     48.000000
  0.437500  0.354167  0.145833     48.000000
  0.479167  0.354167  0.145833     48.000000
  0.395833  0.395833  0.145833     24.000000
  0.437500  0.395833  0.145833     48.000000
  0.479167  0.395833  0.145833     48.000000
  0.437500  0.437500  0.145833     24.000000
  0.479167  0.437500  0.145833     48.000000
  0.479167  0.479167  0.145833     24.000000
  0.187500  0.187500  0.187500      8.000000
  0.229167  0.187500  0.187500     24.000000
  0.270833  0.187500  0.187500     24.000000
  0.312500  0.187500  0.187500     24.000000
  0.354167  0.187500  0.187500     24.000000
  0.395833  0.187500  0.187500     24.000000
  0.437500  0.187500  0.187500     24.000000
  0.479167  0.187500  0.187500     24.000000
  0.229167  0.229167  0.187500     24.000000
  0.270833  0.229167  0.187500     48.000000
  0.312500  0.229167  0.187500     48.000000
  0.354167  0.229167  0.187500     48.000000
  0.395833  0.229167  0.187500     48.000000
  0.437500  0.229167  0.187500     48.000000
  0.479167  0.229167  0.187500     48.000000
  0.270833  0.270833  0.187500     24.000000
  0.312500  0.270833  0.187500     48.000000
  0.354167  0.270833  0.187500     48.000000
  0.395833  0.270833  0.187500     48.000000
  0.437500  0.270833  0.187500     48.000000
  0.479167  0.270833  0.187500     48.000000
  0.312500  0.312500  0.187500     24.000000
  0.354167  0.312500  0.187500     48.000000
  0.395833  0.312500  0.187500     48.000000
  0.437500  0.312500  0.187500     48.000000
  0.479167  0.312500  0.187500     48.000000
  0.354167  0.354167  0.187500     24.000000
  0.395833  0.354167  0.187500     48.000000
  0.437500  0.354167  0.187500     48.000000
  0.479167  0.354167  0.187500     48.000000
  0.395833  0.395833  0.187500     24.000000
  0.437500  0.395833  0.187500     48.000000
  0.479167  0.395833  0.187500     48.000000
  0.437500  0.437500  0.187500     24.000000
  0.479167  0.437500  0.187500     48.000000
  0.479167  0.479167  0.187500     24.000000
  0.229167  0.229167  0.229167      8.000000
  0.270833  0.229167  0.229167     24.000000
  0.312500  0.229167  0.229167     24.000000
  0.354167  0.229167  0.229167     24.000000
  0.395833  0.229167  0.229167     24.000000
  0.437500  0.229167  0.229167     24.000000
  0.479167  0.229167  0.229167     24.000000
  0.270833  0.270833  0.229167     24.000000
  0.312500  0.270833  0.229167     48.000000
  0.354167  0.270833  0.229167     48.000000
  0.395833  0.270833  0.229167     48.000000
  0.437500  0.270833  0.229167     48.000000
  0.479167  0.270833  0.229167     48.000000
  0.312500  0.312500  0.229167     24.000000
  0.354167  0.312500  0.229167     48.000000
  0.395833  0.312500  0.229167     48.000000
  0.437500  0.312500  0.229167     48.000000
  0.479167  0.312500  0.229167     48.000000
  0.354167  0.354167  0.229167     24.000000
  0.395833  0.354167  0.229167     48.000000
  0.437500  0.354167  0.229167     48.000000
  0.479167  0.354167  0.229167     48.000000
  0.395833  0.395833  0.229167     24.000000
  0.437500  0.395833  0.229167     48.000000
  0.479167  0.395833  0.229167     48.000000
  0.437500  0.437500  0.229167     24.000000
  0.479167  0.437500  0.229167     48.000000
  0.479167  0.479167  0.229167     24.000000
  0.270833  0.270833  0.270833      8.000000
  0.312500  0.270833  0.270833     24.000000
  0.354167  0.270833  0.270833     24.000000
  0.395833  0.270833  0.270833     24.000000
  0.437500  0.270833  0.270833     24.000000
  0.479167  0.270833  0.270833     24.000000
  0.312500  0.312500  0.270833     24.000000
  0.354167  0.312500  0.270833     48.000000
  0.395833  0.312500  0.270833     48.000000
  0.437500  0.312500  0.270833     48.000000
  0.479167  0.312500  0.270833     48.000000
  0.354167  0.354167  0.270833     24.000000
  0.395833  0.354167  0.270833     48.000000
  0.437500  0.354167  0.270833     48.000000
  0.479167  0.354167  0.270833     48.000000
  0.395833  0.395833  0.270833     24.000000
  0.437500  0.395833  0.270833     48.000000
  0.479167  0.395833  0.270833     48.000000
  0.437500  0.437500  0.270833     24.000000
  0.479167  0.437500  0.270833     48.000000
  0.479167  0.479167  0.270833     24.000000
  0.312500  0.312500  0.312500      8.000000
  0.354167  0.312500  0.312500     24.000000
  0.395833  0.312500  0.312500     24.000000
  0.437500  0.312500  0.312500     24.000000
  0.479167  0.312500  0.312500     24.000000
  0.354167  0.354167  0.312500     24.000000
  0.395833  0.354167  0.312500     48.000000
  0.437500  0.354167  0.312500     48.000000
  0.479167  0.354167  0.312500     48.000000
  0.395833  0.395833  0.312500     24.000000
  0.437500  0.395833  0.312500     48.000000
  0.479167  0.395833  0.312500     48.000000
  0.437500  0.437500  0.312500     24.000000
  0.479167  0.437500  0.312500     48.000000
  0.479167  0.479167  0.312500     24.000000
  0.354167  0.354167  0.354167      8.000000
  0.395833  0.354167  0.354167     24.000000
  0.437500  0.354167  0.354167     24.000000
  0.479167  0.354167  0.354167     24.000000
  0.395833  0.395833  0.354167     24.000000
  0.437500  0.395833  0.354167     48.000000
  0.479167  0.395833  0.354167     48.000000
  0.437500  0.437500  0.354167     24.000000
  0.479167  0.437500  0.354167     48.000000
  0.479167  0.479167  0.354167     24.000000
  0.395833  0.395833  0.395833      8.000000
  0.437500  0.395833  0.395833     24.000000
  0.479167  0.395833  0.395833     24.000000
  0.437500  0.437500  0.395833     24.000000
  0.479167  0.437500  0.395833     48.000000
  0.479167  0.479167  0.395833     24.000000
  0.437500  0.437500  0.437500      8.000000
  0.479167  0.437500  0.437500     24.000000
  0.479167  0.479167  0.437500     24.000000
  0.479167  0.479167  0.479167      8.000000
 
 Following cartesian coordinates:
            Coordinates               Weight
  0.005158  0.005158  0.005158      8.000000
  0.015474  0.005158  0.005158     24.000000
  0.025791  0.005158  0.005158     24.000000
  0.036107  0.005158  0.005158     24.000000
  0.046423  0.005158  0.005158     24.000000
  0.056739  0.005158  0.005158     24.000000
  0.067056  0.005158  0.005158     24.000000
  0.077372  0.005158  0.005158     24.000000
  0.087688  0.005158  0.005158     24.000000
  0.098005  0.005158  0.005158     24.000000
  0.108321  0.005158  0.005158     24.000000
  0.118637  0.005158  0.005158     24.000000
  0.015474  0.015474  0.005158     24.000000
  0.025791  0.015474  0.005158     48.000000
  0.036107  0.015474  0.005158     48.000000
  0.046423  0.015474  0.005158     48.000000
  0.056739  0.015474  0.005158     48.000000
  0.067056  0.015474  0.005158     48.000000
  0.077372  0.015474  0.005158     48.000000
  0.087688  0.015474  0.005158     48.000000
  0.098005  0.015474  0.005158     48.000000
  0.108321  0.015474  0.005158     48.000000
  0.118637  0.015474  0.005158     48.000000
  0.025791  0.025791  0.005158     24.000000
  0.036107  0.025791  0.005158     48.000000
  0.046423  0.025791  0.005158     48.000000
  0.056739  0.025791  0.005158     48.000000
  0.067056  0.025791  0.005158     48.000000
  0.077372  0.025791  0.005158     48.000000
  0.087688  0.025791  0.005158     48.000000
  0.098005  0.025791  0.005158     48.000000
  0.108321  0.025791  0.005158     48.000000
  0.118637  0.025791  0.005158     48.000000
  0.036107  0.036107  0.005158     24.000000
  0.046423  0.036107  0.005158     48.000000
  0.056739  0.036107  0.005158     48.000000
  0.067056  0.036107  0.005158     48.000000
  0.077372  0.036107  0.005158     48.000000
  0.087688  0.036107  0.005158     48.000000
  0.098005  0.036107  0.005158     48.000000
  0.108321  0.036107  0.005158     48.000000
  0.118637  0.036107  0.005158     48.000000
  0.046423  0.046423  0.005158     24.000000
  0.056739  0.046423  0.005158     48.000000
  0.067056  0.046423  0.005158     48.000000
  0.077372  0.046423  0.005158     48.000000
  0.087688  0.046423  0.005158     48.000000
  0.098005  0.046423  0.005158     48.000000
  0.108321  0.046423  0.005158     48.000000
  0.118637  0.046423  0.005158     48.000000
  0.056739  0.056739  0.005158     24.000000
  0.067056  0.056739  0.005158     48.000000
  0.077372  0.056739  0.005158     48.000000
  0.087688  0.056739  0.005158     48.000000
  0.098005  0.056739  0.005158     48.000000
  0.108321  0.056739  0.005158     48.000000
  0.118637  0.056739  0.005158     48.000000
  0.067056  0.067056  0.005158     24.000000
  0.077372  0.067056  0.005158     48.000000
  0.087688  0.067056  0.005158     48.000000
  0.098005  0.067056  0.005158     48.000000
  0.108321  0.067056  0.005158     48.000000
  0.118637  0.067056  0.005158     48.000000
  0.077372  0.077372  0.005158     24.000000
  0.087688  0.077372  0.005158     48.000000
  0.098005  0.077372  0.005158     48.000000
  0.108321  0.077372  0.005158     48.000000
  0.118637  0.077372  0.005158     48.000000
  0.087688  0.087688  0.005158     24.000000
  0.098005  0.087688  0.005158     48.000000
  0.108321  0.087688  0.005158     48.000000
  0.118637  0.087688  0.005158     48.000000
  0.098005  0.098005  0.005158     24.000000
  0.108321  0.098005  0.005158     48.000000
  0.118637  0.098005  0.005158     48.000000
  0.108321  0.108321  0.005158     24.000000
  0.118637  0.108321  0.005158     48.000000
  0.118637  0.118637  0.005158     24.000000
  0.015474  0.015474  0.015474      8.000000
  0.025791  0.015474  0.015474     24.000000
  0.036107  0.015474  0.015474     24.000000
  0.046423  0.015474  0.015474     24.000000
  0.056739  0.015474  0.015474     24.000000
  0.067056  0.015474  0.015474     24.000000
  0.077372  0.015474  0.015474     24.000000
  0.087688  0.015474  0.015474     24.000000
  0.098005  0.015474  0.015474     24.000000
  0.108321  0.015474  0.015474     24.000000
  0.118637  0.015474  0.015474     24.000000
  0.025791  0.025791  0.015474     24.000000
  0.036107  0.025791  0.015474     48.000000
  0.046423  0.025791  0.015474     48.000000
  0.056739  0.025791  0.015474     48.000000
  0.067056  0.025791  0.015474     48.000000
  0.077372  0.025791  0.015474     48.000000
  0.087688  0.025791  0.015474     48.000000
  0.098005  0.025791  0.015474     48.000000
  0.108321  0.025791  0.015474     48.000000
  0.118637  0.025791  0.015474     48.000000
  0.036107  0.036107  0.015474     24.000000
  0.046423  0.036107  0.015474     48.000000
  0.056739  0.036107  0.015474     48.000000
  0.067056  0.036107  0.015474     48.000000
  0.077372  0.036107  0.015474     48.000000
  0.087688  0.036107  0.015474     48.000000
  0.098005  0.036107  0.015474     48.000000
  0.108321  0.036107  0.015474     48.000000
  0.118637  0.036107  0.015474     48.000000
  0.046423  0.046423  0.015474     24.000000
  0.056739  0.046423  0.015474     48.000000
  0.067056  0.046423  0.015474     48.000000
  0.077372  0.046423  0.015474     48.000000
  0.087688  0.046423  0.015474     48.000000
  0.098005  0.046423  0.015474     48.000000
  0.108321  0.046423  0.015474     48.000000
  0.118637  0.046423  0.015474     48.000000
  0.056739  0.056739  0.015474     24.000000
  0.067056  0.056739  0.015474     48.000000
  0.077372  0.056739  0.015474     48.000000
  0.087688  0.056739  0.015474     48.000000
  0.098005  0.056739  0.015474     48.000000
  0.108321  0.056739  0.015474     48.000000
  0.118637  0.056739  0.015474     48.000000
  0.067056  0.067056  0.015474     24.000000
  0.077372  0.067056  0.015474     48.000000
  0.087688  0.067056  0.015474     48.000000
  0.098005  0.067056  0.015474     48.000000
  0.108321  0.067056  0.015474     48.000000
  0.118637  0.067056  0.015474     48.000000
  0.077372  0.077372  0.015474     24.000000
  0.087688  0.077372  0.015474     48.000000
  0.098005  0.077372  0.015474     48.000000
  0.108321  0.077372  0.015474     48.000000
  0.118637  0.077372  0.015474     48.000000
  0.087688  0.087688  0.015474     24.000000
  0.098005  0.087688  0.015474     48.000000
  0.108321  0.087688  0.015474     48.000000
  0.118637  0.087688  0.015474     48.000000
  0.098005  0.098005  0.015474     24.000000
  0.108321  0.098005  0.015474     48.000000
  0.118637  0.098005  0.015474     48.000000
  0.108321  0.108321  0.015474     24.000000
  0.118637  0.108321  0.015474     48.000000
  0.118637  0.118637  0.015474     24.000000
  0.025791  0.025791  0.025791      8.000000
  0.036107  0.025791  0.025791     24.000000
  0.046423  0.025791  0.025791     24.000000
  0.056739  0.025791  0.025791     24.000000
  0.067056  0.025791  0.025791     24.000000
  0.077372  0.025791  0.025791     24.000000
  0.087688  0.025791  0.025791     24.000000
  0.098005  0.025791  0.025791     24.000000
  0.108321  0.025791  0.025791     24.000000
  0.118637  0.025791  0.025791     24.000000
  0.036107  0.036107  0.025791     24.000000
  0.046423  0.036107  0.025791     48.000000
  0.056739  0.036107  0.025791     48.000000
  0.067056  0.036107  0.025791     48.000000
  0.077372  0.036107  0.025791     48.000000
  0.087688  0.036107  0.025791     48.000000
  0.098005  0.036107  0.025791     48.000000
  0.108321  0.036107  0.025791     48.000000
  0.118637  0.036107  0.025791     48.000000
  0.046423  0.046423  0.025791     24.000000
  0.056739  0.046423  0.025791     48.000000
  0.067056  0.046423  0.025791     48.000000
  0.077372  0.046423  0.025791     48.000000
  0.087688  0.046423  0.025791     48.000000
  0.098005  0.046423  0.025791     48.000000
  0.108321  0.046423  0.025791     48.000000
  0.118637  0.046423  0.025791     48.000000
  0.056739  0.056739  0.025791     24.000000
  0.067056  0.056739  0.025791     48.000000
  0.077372  0.056739  0.025791     48.000000
  0.087688  0.056739  0.025791     48.000000
  0.098005  0.056739  0.025791     48.000000
  0.108321  0.056739  0.025791     48.000000
  0.118637  0.056739  0.025791     48.000000
  0.067056  0.067056  0.025791     24.000000
  0.077372  0.067056  0.025791     48.000000
  0.087688  0.067056  0.025791     48.000000
  0.098005  0.067056  0.025791     48.000000
  0.108321  0.067056  0.025791     48.000000
  0.118637  0.067056  0.025791     48.000000
  0.077372  0.077372  0.025791     24.000000
  0.087688  0.077372  0.025791     48.000000
  0.098005  0.077372  0.025791     48.000000
  0.108321  0.077372  0.025791     48.000000
  0.118637  0.077372  0.025791     48.000000
  0.087688  0.087688  0.025791     24.000000
  0.098005  0.087688  0.025791     48.000000
  0.108321  0.087688  0.025791     48.000000
  0.118637  0.087688  0.025791     48.000000
  0.098005  0.098005  0.025791     24.000000
  0.108321  0.098005  0.025791     48.000000
  0.118637  0.098005  0.025791     48.000000
  0.108321  0.108321  0.025791     24.000000
  0.118637  0.108321  0.025791     48.000000
  0.118637  0.118637  0.025791     24.000000
  0.036107  0.036107  0.036107      8.000000
  0.046423  0.036107  0.036107     24.000000
  0.056739  0.036107  0.036107     24.000000
  0.067056  0.036107  0.036107     24.000000
  0.077372  0.036107  0.036107     24.000000
  0.087688  0.036107  0.036107     24.000000
  0.098005  0.036107  0.036107     24.000000
  0.108321  0.036107  0.036107     24.000000
  0.118637  0.036107  0.036107     24.000000
  0.046423  0.046423  0.036107     24.000000
  0.056739  0.046423  0.036107     48.000000
  0.067056  0.046423  0.036107     48.000000
  0.077372  0.046423  0.036107     48.000000
  0.087688  0.046423  0.036107     48.000000
  0.098005  0.046423  0.036107     48.000000
  0.108321  0.046423  0.036107     48.000000
  0.118637  0.046423  0.036107     48.000000
  0.056739  0.056739  0.036107     24.000000
  0.067056  0.056739  0.036107     48.000000
  0.077372  0.056739  0.036107     48.000000
  0.087688  0.056739  0.036107     48.000000
  0.098005  0.056739  0.036107     48.000000
  0.108321  0.056739  0.036107     48.000000
  0.118637  0.056739  0.036107     48.000000
  0.067056  0.067056  0.036107     24.000000
  0.077372  0.067056  0.036107     48.000000
  0.087688  0.067056  0.036107     48.000000
  0.098005  0.067056  0.036107     48.000000
  0.108321  0.067056  0.036107     48.000000
  0.118637  0.067056  0.036107     48.000000
  0.077372  0.077372  0.036107     24.000000
  0.087688  0.077372  0.036107     48.000000
  0.098005  0.077372  0.036107     48.000000
  0.108321  0.077372  0.036107     48.000000
  0.118637  0.077372  0.036107     48.000000
  0.087688  0.087688  0.036107     24.000000
  0.098005  0.087688  0.036107     48.000000
  0.108321  0.087688  0.036107     48.000000
  0.118637  0.087688  0.036107     48.000000
  0.098005  0.098005  0.036107     24.000000
  0.108321  0.098005  0.036107     48.000000
  0.118637  0.098005  0.036107     48.000000
  0.108321  0.108321  0.036107     24.000000
  0.118637  0.108321  0.036107     48.000000
  0.118637  0.118637  0.036107     24.000000
  0.046423  0.046423  0.046423      8.000000
  0.056739  0.046423  0.046423     24.000000
  0.067056  0.046423  0.046423     24.000000
  0.077372  0.046423  0.046423     24.000000
  0.087688  0.046423  0.046423     24.000000
  0.098005  0.046423  0.046423     24.000000
  0.108321  0.046423  0.046423     24.000000
  0.118637  0.046423  0.046423     24.000000
  0.056739  0.056739  0.046423     24.000000
  0.067056  0.056739  0.046423     48.000000
  0.077372  0.056739  0.046423     48.000000
  0.087688  0.056739  0.046423     48.000000
  0.098005  0.056739  0.046423     48.000000
  0.108321  0.056739  0.046423     48.000000
  0.118637  0.056739  0.046423     48.000000
  0.067056  0.067056  0.046423     24.000000
  0.077372  0.067056  0.046423     48.000000
  0.087688  0.067056  0.046423     48.000000
  0.098005  0.067056  0.046423     48.000000
  0.108321  0.067056  0.046423     48.000000
  0.118637  0.067056  0.046423     48.000000
  0.077372  0.077372  0.046423     24.000000
  0.087688  0.077372  0.046423     48.000000
  0.098005  0.077372  0.046423     48.000000
  0.108321  0.077372  0.046423     48.000000
  0.118637  0.077372  0.046423     48.000000
  0.087688  0.087688  0.046423     24.000000
  0.098005  0.087688  0.046423     48.000000
  0.108321  0.087688  0.046423     48.000000
  0.118637  0.087688  0.046423     48.000000
  0.098005  0.098005  0.046423     24.000000
  0.108321  0.098005  0.046423     48.000000
  0.118637  0.098005  0.046423     48.000000
  0.108321  0.108321  0.046423     24.000000
  0.118637  0.108321  0.046423     48.000000
  0.118637  0.118637  0.046423     24.000000
  0.056739  0.056739  0.056739      8.000000
  0.067056  0.056739  0.056739     24.000000
  0.077372  0.056739  0.056739     24.000000
  0.087688  0.056739  0.056739     24.000000
  0.098005  0.056739  0.056739     24.000000
  0.108321  0.056739  0.056739     24.000000
  0.118637  0.056739  0.056739     24.000000
  0.067056  0.067056  0.056739     24.000000
  0.077372  0.067056  0.056739     48.000000
  0.087688  0.067056  0.056739     48.000000
  0.098005  0.067056  0.056739     48.000000
  0.108321  0.067056  0.056739     48.000000
  0.118637  0.067056  0.056739     48.000000
  0.077372  0.077372  0.056739     24.000000
  0.087688  0.077372  0.056739     48.000000
  0.098005  0.077372  0.056739     48.000000
  0.108321  0.077372  0.056739     48.000000
  0.118637  0.077372  0.056739     48.000000
  0.087688  0.087688  0.056739     24.000000
  0.098005  0.087688  0.056739     48.000000
  0.108321  0.087688  0.056739     48.000000
  0.118637  0.087688  0.056739     48.000000
  0.098005  0.098005  0.056739     24.000000
  0.108321  0.098005  0.056739     48.000000
  0.118637  0.098005  0.056739     48.000000
  0.108321  0.108321  0.056739     24.000000
  0.118637  0.108321  0.056739     48.000000
  0.118637  0.118637  0.056739     24.000000
  0.067056  0.067056  0.067056      8.000000
  0.077372  0.067056  0.067056     24.000000
  0.087688  0.067056  0.067056     24.000000
  0.098005  0.067056  0.067056     24.000000
  0.108321  0.067056  0.067056     24.000000
  0.118637  0.067056  0.067056     24.000000
  0.077372  0.077372  0.067056     24.000000
  0.087688  0.077372  0.067056     48.000000
  0.098005  0.077372  0.067056     48.000000
  0.108321  0.077372  0.067056     48.000000
  0.118637  0.077372  0.067056     48.000000
  0.087688  0.087688  0.067056     24.000000
  0.098005  0.087688  0.067056     48.000000
  0.108321  0.087688  0.067056     48.000000
  0.118637  0.087688  0.067056     48.000000
  0.098005  0.098005  0.067056     24.000000
  0.108321  0.098005  0.067056     48.000000
  0.118637  0.098005  0.067056     48.000000
  0.108321  0.108321  0.067056     24.000000
  0.118637  0.108321  0.067056     48.000000
  0.118637  0.118637  0.067056     24.000000
  0.077372  0.077372  0.077372      8.000000
  0.087688  0.077372  0.077372     24.000000
  0.098005  0.077372  0.077372     24.000000
  0.108321  0.077372  0.077372     24.000000
  0.118637  0.077372  0.077372     24.000000
  0.087688  0.087688  0.077372     24.000000
  0.098005  0.087688  0.077372     48.000000
  0.108321  0.087688  0.077372     48.000000
  0.118637  0.087688  0.077372     48.000000
  0.098005  0.098005  0.077372     24.000000
  0.108321  0.098005  0.077372     48.000000
  0.118637  0.098005  0.077372     48.000000
  0.108321  0.108321  0.077372     24.000000
  0.118637  0.108321  0.077372     48.000000
  0.118637  0.118637  0.077372     24.000000
  0.087688  0.087688  0.087688      8.000000
  0.098005  0.087688  0.087688     24.000000
  0.108321  0.087688  0.087688     24.000000
  0.118637  0.087688  0.087688     24.000000
  0.098005  0.098005  0.087688     24.000000
  0.108321  0.098005  0.087688     48.000000
  0.118637  0.098005  0.087688     48.000000
  0.108321  0.108321  0.087688     24.000000
  0.118637  0.108321  0.087688     48.000000
  0.118637  0.118637  0.087688     24.000000
  0.098005  0.098005  0.098005      8.000000
  0.108321  0.098005  0.098005     24.000000
  0.118637  0.098005  0.098005     24.000000
  0.108321  0.108321  0.098005     24.000000
  0.118637  0.108321  0.098005     48.000000
  0.118637  0.118637  0.098005     24.000000
  0.108321  0.108321  0.108321      8.000000
  0.118637  0.108321  0.108321     24.000000
  0.118637  0.118637  0.108321     24.000000
  0.118637  0.118637  0.118637      8.000000
 


--------------------------------------------------------------------------------------------------------




 Dimension of arrays:
   k-points           NKPTS =    364   k-points in BZ     NKDIM =    364   number of bands    NBANDS=     14
   number of dos      NEDOS =    301   number of ions     NIONS =      4
   non local maximal  LDIM  =      4   non local SUM 2l+1 LMDIM =      8
   total plane-waves  NPLWV =  13824
   max r-space proj   IRMAX =   3904   max aug-charges    IRDMAX=  13808
   dimension x,y,z NGX =    24 NGY =   24 NGZ =   24
   dimension x,y,z NGXF=    48 NGYF=   48 NGZF=   48
   support grid    NGXF=    48 NGYF=   48 NGZF=   48
   ions per type =               4
   NGX,Y,Z   is equivalent  to a cutoff of  11.71, 11.71, 11.71 a.u.
   NGXF,Y,Z  is equivalent  to a cutoff of  23.42, 23.42, 23.42 a.u.

 SYSTEM =  Al fcc relaxation                       
 POSCAR =  Al4                                     

 Startparameter for this run:
   NWRITE =      2    write-flag & timer
   PREC   = accura    normal or accurate (medium, high low for compatibility)
   ISTART =      0    job   : 0-new  1-cont  2-samecut
   ICHARG =      2    charge: 1-file 2-atom 10-const
   ISPIN  =      1    spin polarized calculation?
   LNONCOLLINEAR =      F non collinear calculations
   LSORBIT =      F    spin-orbit coupling
   INIWAV =      1    electr: 0-lowe 1-rand  2-diag
   LASPH  =      F    aspherical Exc in radial PAW
 Electronic Relaxation 1
   ENCUT  =  400.0 eV  29.40 Ry    5.42 a.u.   5.56  5.56  5.56*2*pi/ulx,y,z
   ENINI  =  400.0     initial cutoff
   ENAUG  =  291.1 eV  augmentation charge cutoff
   NELM   =     60;   NELMIN=  4; NELMDL= -5     # of ELM steps 
   EDIFF  = 0.1E-05   stopping-criterion for ELM
   LREAL  =      T    real-space projection
   NLSPLINE    = F    spline interpolate recip. space projectors
   LCOMPAT=      F    compatible to vasp.4.4
   GGA_COMPAT  = T    GGA compatible to vasp.4.4-vasp.4.6
   LMAXPAW     = -100 max onsite density
   LMAXMIX     =    2 max onsite mixed and CHGCAR
   VOSKOWN=      0    Vosko Wilk Nusair interpolation
   ROPT   =   -0.00025
 Ionic relaxation
   EDIFFG = 0.1E-04   stopping-criterion for IOM
   NSW    =    100    number of steps for IOM
   NBLOCK =      1;   KBLOCK =    100    inner block; outer block 
   IBRION =      2    ionic relax: 0-MD 1-quasi-New 2-CG
   NFREE  =      1    steps in history (QN), initial steepest desc. (CG)
   ISIF   =      4    stress and relaxation
   IWAVPR =     11    prediction:  0-non 1-charg 2-wave 3-comb
   ISYM   =      2    0-nonsym 1-usesym 2-fastsym
   LCORR  =      T    Harris-Foulkes like correction to forces

   POTIM  = 0.5000    time-step for ionic-motion
   TEIN   =    0.0    initial temperature
   TEBEG  =    0.0;   TEEND  =   0.0 temperature during run
   SMASS  =  -3.00    Nose mass-parameter (am)
   estimated Nose-frequenzy (Omega)   =  0.10E-29 period in steps = 0.13E+47 mass=  -0.265E-27a.u.
   SCALEE = 1.0000    scale energy and forces
   NPACO  =    256;   APACO  = 10.0  distance and # of slots for P.C.
   PSTRESS=    0.0 pullay stress

  Mass of Ions in am
   POMASS =  26.98
  Ionic Valenz
   ZVAL   =   3.00
  Atomic Wigner-Seitz radii
   RWIGS  =  -1.00
  virtual crystal weights 
   VCA    =   1.00
   NELECT =      12.0000    total number of electrons
   NUPDOWN=      -1.0000    fix difference up-down

 DOS related values:
   EMIN   =  10.00;   EMAX   =-10.00  energy-range for DOS
   EFERMI =   0.00;   METHOD = LEGACY      
   ISMEAR =     1;   SIGMA  =   0.20  broadening in eV -4-tet -1-fermi 0-gaus

 Electronic relaxation 2 (details)
   IALGO  =     68    algorithm
   LDIAG  =      T    sub-space diagonalisation (order eigenvalues)
   LSUBROT=      F    optimize rotation matrix (better conditioning)
   TURBO    =      0    0=normal 1=particle mesh
   IRESTART =      0    0=no restart 2=restart with 2 vectors
   NREBOOT  =      0    no. of reboots
   NMIN     =      0    reboot dimension
   EREF     =   0.00    reference energy to select bands
   IMIX   =      4    mixing-type and parameters
     AMIX     =   0.40;   BMIX     =  1.00
     AMIX_MAG =   1.60;   BMIX_MAG =  1.00
     AMIN     =   0.10
     WC   =   100.;   INIMIX=   1;  MIXPRE=   1;  MAXMIX= -45

 Intra band minimization:
   WEIMIN = 0.0010     energy-eigenvalue tresh-hold
   EBREAK =  0.18E-07  absolut break condition
   DEPER  =   0.30     relativ break condition  

   TIME   =   0.40     timestep for ELM

  volume/ion in A,a.u.               =       9.88        66.69
  Fermi-wavevector in a.u.,A,eV,Ry     =   1.100234  2.079141 16.470065  1.210516
  Thomas-Fermi vector in A             =   2.236642

 Write flags
   LWAVE        =      F    write WAVECAR
   LDOWNSAMPLE  =      F    k-point downsampling of WAVECAR
   LCHARG       =      F    write CHGCAR
   LVTOT        =      F    write LOCPOT, total local potential
   LVHAR        =      F    write LOCPOT, Hartree potential only
   LELF         =      F    write electronic localiz. function (ELF)
   LORBIT       =      0    0 simple, 1 ext, 2 COOP (PROOUT), +10 PAW based schemes


 Dipole corrections
   LMONO  =      F    monopole corrections only (constant potential shift)
   LDIPOL =      F    correct potential (dipole corrections)
   IDIPOL =      0    1-x, 2-y, 3-z, 4-all directions 
   EPSILON=  1.0000000 bulk dielectric constant

 Exchange correlation treatment:
   GGA     =    --    GGA type
   LEXCH   =     8    internal setting for exchange type
   LIBXC   =     F    Libxc                    
   VOSKOWN =     0    Vosko Wilk Nusair interpolation
   LHFCALC =     F    Hartree Fock is set to
   LHFONE  =     F    Hartree Fock one center treatment
   AEXX    =    0.0000 exact exchange contribution

 Linear response parameters
   LEPSILON=     F    determine dielectric tensor
   LRPA    =     F    only Hartree local field effects (RPA)
   LNABLA  =     F    use nabla operator in PAW spheres
   LVEL    =     F    velocity operator in full k-point grid
   CSHIFT  =0.1000    complex shift for real part using Kramers Kronig
   OMEGAMAX=  -1.0    maximum frequency
   DEG_THRESHOLD= 0.2000000E-02 threshold for treating states as degnerate
   RTIME   =   -0.100 relaxation time in fs
  (WPLASMAI=    0.000 imaginary part of plasma frequency in eV, 0.658/RTIME)
   DFIELD  = 0.0000000 0.0000000 0.0000000 field for delta impulse in time

  Optional k-point grid parameters
   LKPOINTS_OPT  =     F    use optional k-point grid
   KPOINTS_OPT_MODE=     1    mode for optional k-point grid

 Orbital magnetization related:
   ORBITALMAG=     F  switch on orbital magnetization
   LCHIMAG   =     F  perturbation theory with respect to B field
   DQ        =  0.001000  dq finite difference perturbation B field
   LLRAUG    =     F  two centre corrections for induced B field
   LBONE     =     F  B-component reconstruction in AE one-centre
   LVGVCALC  =     T  calculate vGv susceptibility
   LVGVAPPL  =     F  apply vGv susceptibility instead of pGv for G=0

 Random number generation:
   RANDOM_GENERATOR = DEFAULT
   PCG_SEED         = not used


--------------------------------------------------------------------------------------------------------


 conjugate gradient relaxation of ions
 charge density and potential will be updated during run
 non-spin polarized calculation
 RMM-DIIS sequential band-by-band and
  variant of blocked Davidson during initial phase
 perform sub-space diagonalisation
    before iterative eigenvector-optimisation
 modified Broyden-mixing scheme, WC =      100.0
 initial mixing is a Kerker type mixing with AMIX =  0.4000 and BMIX =      1.0000
 Hartree-type preconditioning will be used
 using additional bands            8
 real space projection scheme for non local part
 use partial core corrections
 calculate Harris-corrections to forces   (improved forces if not selfconsistent)
 use gradient corrections 
 use of overlap-Matrix (Vanderbilt PP)
 Methfessel and Paxton  Order N= 1 SIGMA  =   0.20


--------------------------------------------------------------------------------------------------------


  energy-cutoff  :      400.00
  volume of cell :       39.53
      direct lattice vectors                 reciprocal lattice vectors
     3.406565236  0.000000000  0.000000000     0.293550815  0.000000000 -0.000000000
    -0.000000000  3.406565236  0.000000000     0.000000000  0.293550815  0.000000000
     0.000000000  0.000000000  3.406565236    -0.000000000 -0.000000000  0.293550815

  length of vectors
     3.406565236  3.406565236  3.406565236     0.293550815  0.293550815  0.293550815



 k-points in units of 2pi/SCALE and weight: Automatic kpoint scheme                 
   0.00515813  0.00515813  0.00515813       0.001
   0.01547440  0.00515813  0.00515813       0.002
   0.02579066  0.00515813  0.00515813       0.002
   0.03610693  0.00515813  0.00515813       0.002
   0.04642319  0.00515813  0.00515813       0.002
   0.05673945  0.00515813  0.00515813       0.002
   0.06705572  0.00515813  0.00515813       0.002
   0.07737198  0.00515813  0.00515813       0.002
   0.08768825  0.00515813  0.00515813       0.002
   0.09800451  0.00515813  0.00515813       0.002
   0.10832078  0.00515813  0.00515813       0.002
   0.11863704  0.00515813  0.00515813       0.002
   0.01547440  0.01547440  0.00515813       0.002
   0.02579066  0.01547440  0.00515813       0.003
   0.03610693  0.01547440  0.00515813       0.003
   0.04642319  0.01547440  0.00515813       0.003
   0.05673945  0.01547440  0.00515813       0.003
   0.06705572  0.01547440  0.00515813       0.003
   0.07737198  0.01547440  0.00515813       0.003
   0.08768825  0.01547440  0.00515813       0.003
   0.09800451  0.01547440  0.00515813       0.003
   0.10832078  0.01547440  0.00515813       0.003
   0.11863704  0.01547440  0.00515813       0.003
   0.02579066  0.02579066  0.00515813       0.002
   0.03610693  0.02579066  0.00515813       0.003
   0.04642319  0.02579066  0.00515813       0.003
   0.05673945  0.02579066  0.00515813       0.003
   0.06705572  0.02579066  0.00515813       0.003
   0.07737198  0.02579066  0.00515813       0.003
   0.08768825  0.02579066  0.00515813       0.003
   0.09800451  0.02579066  0.00515813       0.003
   0.10832078  0.02579066  0.00515813       0.003
   0.11863704  0.02579066  0.00515813       0.003
   0.03610693  0.03610693  0.00515813       0.002
   0.04642319  0.03610693  0.00515813       0.003
   0.05673945  0.03610693  0.00515813       0.003
   0.06705572  0.03610693  0.00515813       0.003
   0.07737198  0.03610693  0.00515813       0.003
   0.08768825  0.03610693  0.00515813       0.003
   0.09800451  0.03610693  0.00515813       0.003
   0.10832078  0.03610693  0.00515813       0.003
   0.11863704  0.03610693  0.00515813       0.003
   0.04642319  0.04642319  0.00515813       0.002
   0.05673945  0.04642319  0.00515813       0.003
   0.06705572  0.04642319  0.00515813       0.003
   0.07737198  0.04642319  0.00515813       0.003
   0.08768825  0.04642319  0.00515813       0.003
   0.09800451  0.04642319  0.00515813       0.003
   0.10832078  0.04642319  0.00515813       0.003
   0.11863704  0.04642319  0.00515813       0.003
   0.05673945  0.05673945  0.00515813       0.002
   0.06705572  0.05673945  0.00515813       0.003
   0.07737198  0.05673945  0.00515813       0.003
   0.08768825  0.05673945  0.00515813       0.003
   0.09800451  0.05673945  0.00515813       0.003
   0.10832078  0.05673945  0.00515813       0.003
   0.11863704  0.05673945  0.00515813       0.003
   0.06705572  0.06705572  0.00515813       0.002
   0.07737198  0.06705572  0.00515813       0.003
   0.08768825  0.06705572  0.00515813       0.003
   0.09800451  0.06705572  0.00515813       0.003
   0.10832078  0.06705572  0.00515813       0.003
   0.11863704  0.06705572  0.00515813       0.003
   0.07737198  0.07737198  0.00515813       0.002
   0.08768825  0.07737198  0.00515813       0.003
   0.09800451  0.07737198  0.00515813       0.003
   0.10832078  0.07737198  0.00515813       0.003
   0.11863704  0.07737198  0.00515813       0.003
   0.08768825  0.08768825  0.00515813       0.002
   0.09800451  0.08768825  0.00515813       0.003
   0.10832078  0.08768825  0.00515813       0.003
   0.11863704  0.08768825  0.00515813       0.003
   0.09800451  0.09800451  0.00515813       0.002
   0.10832078  0.09800451  0.00515813       0.003
   0.11863704  0.09800451  0.00515813       0.003
   0.10832078  0.10832078  0.00515813       0.002
   0.11863704  0.10832078  0.00515813       0.003
   0.11863704  0.11863704  0.00515813       0.002
   0.01547440  0.01547440  0.01547440       0.001
   0.02579066  0.01547440  0.01547440       0.002
   0.03610693  0.01547440  0.01547440       0.002
   0.04642319  0.01547440  0.01547440       0.002
   0.05673945  0.01547440  0.01547440       0.002
   0.06705572  0.01547440  0.01547440       0.002
   0.07737198  0.01547440  0.01547440       0.002
   0.08768825  0.01547440  0.01547440       0.002
   0.09800451  0.01547440  0.01547440       0.002
   0.10832078  0.01547440  0.01547440       0.002
   0.11863704  0.01547440  0.01547440       0.002
   0.02579066  0.02579066  0.01547440       0.002
   0.03610693  0.02579066  0.01547440       0.003
   0.04642319  0.02579066  0.01547440       0.003
   0.05673945  0.02579066  0.01547440       0.003
   0.06705572  0.02579066  0.01547440       0.003
   0.07737198  0.02579066  0.01547440       0.003
   0.08768825  0.02579066  0.01547440       0.003
   0.09800451  0.02579066  0.01547440       0.003
   0.10832078  0.02579066  0.01547440       0.003
   0.11863704  0.02579066  0.01547440       0.003
   0.03610693  0.03610693  0.01547440       0.002
   0.04642319  0.03610693  0.01547440       0.003
   0.05673945  0.03610693  0.01547440       0.003
   0.06705572  0.03610693  0.01547440       0.003
   0.07737198  0.03610693  0.01547440       0.003
   0.08768825  0.03610693  0.01547440       0.003
   0.09800451  0.03610693  0.01547440       0.003
   0.10832078  0.03610693  0.01547440       0.003
   0.11863704  0.03610693  0.01547440       0.003
   0.04642319  0.04642319  0.01547440       0.002
   0.05673945  0.04642319  0.01547440       0.003
   0.06705572  0.04642319  0.01547440       0.003
   0.07737198  0.04642319  0.01547440       0.003
   0.08768825  0.04642319  0.01547440       0.003
   0.09800451  0.04642319  0.01547440       0.003
   0.10832078  0.04642319  0.01547440       0.003
   0.11863704  0.04642319  0.01547440       0.003
   0.05673945  0.05673945  0.01547440       0.002
   0.06705572  0.05673945  0.01547440       0.003
   0.07737198  0.05673945  0.01547440       0.003
   0.08768825  0.05673945  0.01547440       0.003
   0.09800451  0.05673945  0.01547440       0.003
   0.10832078  0.05673945  0.01547440       0.003
   0.11863704  0.05673945  0.01547440       0.003
   0.06705572  0.06705572  0.01547440       0.002
   0.07737198  0.06705572  0.01547440       0.003
   0.08768825  0.06705572  0.01547440       0.003
   0.09800451  0.06705572  0.01547440       0.003
   0.10832078  0.06705572  0.01547440       0.003
   0.11863704  0.06705572  0.01547440       0.003
   0.07737198  0.07737198  0.01547440       0.002
   0.08768825  0.07737198  0.01547440       0.003
   0.09800451  0.07737198  0.01547440       0.003
   0.10832078  0.07737198  0.01547440       0.003
   0.11863704  0.07737198  0.01547440       0.003
   0.08768825  0.08768825  0.01547440       0.002
   0.09800451  0.08768825  0.01547440       0.003
   0.10832078  0.08768825  0.01547440       0.003
   0.11863704  0.08768825  0.01547440       0.003
   0.09800451  0.09800451  0.01547440       0.002
   0.10832078  0.09800451  0.01547440       0.003
   0.11863704  0.09800451  0.01547440       0.003
   0.10832078  0.10832078  0.01547440       0.002
   0.11863704  0.10832078  0.01547440       0.003
   0.11863704  0.11863704  0.01547440       0.002
   0.02579066  0.02579066  0.02579066       0.001
   0.03610693  0.02579066  0.02579066       0.002
   0.04642319  0.02579066  0.02579066       0.002
   0.05673945  0.02579066  0.02579066       0.002
   0.06705572  0.02579066  0.02579066       0.002
   0.07737198  0.02579066  0.02579066       0.002
   0.08768825  0.02579066  0.02579066       0.002
   0.09800451  0.02579066  0.02579066       0.002
   0.10832078  0.02579066  0.02579066       0.002
   0.11863704  0.02579066  0.02579066       0.002
   0.03610693  0.03610693  0.02579066       0.002
   0.04642319  0.03610693  0.02579066       0.003
   0.05673945  0.03610693  0.02579066       0.003
   0.06705572  0.03610693  0.02579066       0.003
   0.07737198  0.03610693  0.02579066       0.003
   0.08768825  0.03610693  0.02579066       0.003
   0.09800451  0.03610693  0.02579066       0.003
   0.10832078  0.03610693  0.02579066       0.003
   0.11863704  0.03610693  0.02579066       0.003
   0.04642319  0.04642319  0.02579066       0.002
   0.05673945  0.04642319  0.02579066       0.003
   0.06705572  0.04642319  0.02579066       0.003
   0.07737198  0.04642319  0.02579066       0.003
   0.08768825  0.04642319  0.02579066       0.003
   0.09800451  0.04642319  0.02579066       0.003
   0.10832078  0.04642319  0.02579066       0.003
   0.11863704  0.04642319  0.02579066       0.003
   0.05673945  0.05673945  0.02579066       0.002
   0.06705572  0.05673945  0.02579066       0.003
   0.07737198  0.05673945  0.02579066       0.003
   0.08768825  0.05673945  0.02579066       0.003
   0.09800451  0.05673945  0.02579066       0.003
   0.10832078  0.05673945  0.02579066       0.003
   0.11863704  0.05673945  0.02579066       0.003
   0.06705572  0.06705572  0.02579066       0.002
   0.07737198  0.06705572  0.02579066       0.003
   0.08768825  0.06705572  0.02579066       0.003
   0.09800451  0.06705572  0.02579066       0.003
   0.10832078  0.06705572  0.02579066       0.003
   0.11863704  0.06705572  0.02579066       0.003
   0.07737198  0.07737198  0.02579066       0.002
   0.08768825  0.07737198  0.02579066       0.003
   0.09800451  0.07737198  0.02579066       0.003
   0.10832078  0.07737198  0.02579066       0.003
   0.11863704  0.07737198  0.02579066       0.003
   0.08768825  0.08768825  0.02579066       0.002
   0.09800451  0.08768825  0.02579066       0.003
   0.10832078  0.08768825  0.02579066       0.003
   0.11863704  0.08768825  0.02579066       0.003
   0.09800451  0.09800451  0.02579066       0.002
   0.10832078  0.09800451  0.02579066       0.003
   0.11863704  0.09800451  0.02579066       0.003
   0.10832078  0.10832078  0.02579066       0.002
   0.11863704  0.10832078  0.02579066       0.003
   0.11863704  0.11863704  0.02579066       0.002
   0.03610693  0.03610693  0.03610693       0.001
   0.04642319  0.03610693  0.03610693       0.002
   0.05673945  0.03610693  0.03610693       0.002
   0.06705572  0.03610693  0.03610693       0.002
   0.07737198  0.03610693  0.03610693       0.002
   0.08768825  0.03610693  0.03610693       0.002
   0.09800451  0.03610693  0.03610693       0.002
   0.10832078  0.03610693  0.03610693       0.002
   0.11863704  0.03610693  0.03610693       0.002
   0.04642319  0.04642319  0.03610693       0.002
   0.05673945  0.04642319  0.03610693       0.003
   0.06705572  0.04642319  0.03610693       0.003
   0.07737198  0.04642319  0.03610693       0.003
   0.08768825  0.04642319  0.03610693       0.003
   0.09800451  0.04642319  0.03610693       0.003
   0.10832078  0.04642319  0.03610693       0.003
   0.11863704  0.04642319  0.03610693       0.003
   0.05673945  0.05673945  0.03610693       0.002
   0.06705572  0.05673945  0.03610693       0.003
   0.07737198  0.05673945  0.03610693       0.003
   0.08768825  0.05673945  0.03610693       0.003
   0.09800451  0.05673945  0.03610693       0.003
   0.10832078  0.05673945  0.03610693       0.003
   0.11863704  0.05673945  0.03610693       0.003
   0.06705572  0.06705572  0.03610693       0.002
   0.07737198  0.06705572  0.03610693       0.003
   0.08768825  0.06705572  0.03610693       0.003
   0.09800451  0.06705572  0.03610693       0.003
   0.10832078  0.06705572  0.03610693       0.003
   0.11863704  0.06705572  0.03610693       0.003
   0.07737198  0.07737198  0.03610693       0.002
   0.08768825  0.07737198  0.03610693       0.003
   0.09800451  0.07737198  0.03610693       0.003
   0.10832078  0.07737198  0.03610693       0.003
   0.11863704  0.07737198  0.03610693       0.003
   0.08768825  0.08768825  0.03610693       0.002
   0.09800451  0.08768825  0.03610693       0.003
   0.10832078  0.08768825  0.03610693       0.003
   0.11863704  0.08768825  0.03610693       0.003
   0.09800451  0.09800451  0.03610693       0.002
   0.10832078  0.09800451  0.03610693       0.003
   0.11863704  0.09800451  0.03610693       0.003
   0.10832078  0.10832078  0.03610693       0.002
   0.11863704  0.10832078  0.03610693       0.003
   0.11863704  0.11863704  0.03610693       0.002
   0.04642319  0.04642319  0.04642319       0.001
   0.05673945  0.04642319  0.04642319       0.002
   0.06705572  0.04642319  0.04642319       0.002
   0.07737198  0.04642319  0.04642319       0.002
   0.08768825  0.04642319  0.04642319       0.002
   0.09800451  0.04642319  0.04642319       0.002
   0.10832078  0.04642319  0.04642319       0.002
   0.11863704  0.04642319  0.04642319       0.002
   0.05673945  0.05673945  0.04642319       0.002
   0.06705572  0.05673945  0.04642319       0.003
   0.07737198  0.05673945  0.04642319       0.003
   0.08768825  0.05673945  0.04642319       0.003
   0.09800451  0.05673945  0.04642319       0.003
   0.10832078  0.05673945  0.04642319       0.003
   0.11863704  0.05673945  0.04642319       0.003
   0.06705572  0.06705572  0.04642319       0.002
   0.07737198  0.06705572  0.04642319       0.003
   0.08768825  0.06705572  0.04642319       0.003
   0.09800451  0.06705572  0.04642319       0.003
   0.10832078  0.06705572  0.04642319       0.003
   0.11863704  0.06705572  0.04642319       0.003
   0.07737198  0.07737198  0.04642319       0.002
   0.08768825  0.07737198  0.04642319       0.003
   0.09800451  0.07737198  0.04642319       0.003
   0.10832078  0.07737198  0.04642319       0.003
   0.11863704  0.07737198  0.04642319       0.003
   0.08768825  0.08768825  0.04642319       0.002
   0.09800451  0.08768825  0.04642319       0.003
   0.10832078  0.08768825  0.04642319       0.003
   0.11863704  0.08768825  0.04642319       0.003
   0.09800451  0.09800451  0.04642319       0.002
   0.10832078  0.09800451  0.04642319       0.003
   0.11863704  0.09800451  0.04642319       0.003
   0.10832078  0.10832078  0.04642319       0.002
   0.11863704  0.10832078  0.04642319       0.003
   0.11863704  0.11863704  0.04642319       0.002
   0.05673945  0.05673945  0.05673945       0.001
   0.06705572  0.05673945  0.05673945       0.002
   0.07737198  0.05673945  0.05673945       0.002
   0.08768825  0.05673945  0.05673945       0.002
   0.09800451  0.05673945  0.05673945       0.002
   0.10832078  0.05673945  0.05673945       0.002
   0.11863704  0.05673945  0.05673945       0.002
   0.06705572  0.06705572  0.05673945       0.002
   0.07737198  0.06705572  0.05673945       0.003
   0.08768825  0.06705572  0.05673945       0.003
   0.09800451  0.06705572  0.05673945       0.003
   0.10832078  0.06705572  0.05673945       0.003
   0.11863704  0.06705572  0.05673945       0.003
   0.07737198  0.07737198  0.05673945       0.002
   0.08768825  0.07737198  0.05673945       0.003
   0.09800451  0.07737198  0.05673945       0.003
   0.10832078  0.07737198  0.05673945       0.003
   0.11863704  0.07737198  0.05673945       0.003
   0.08768825  0.08768825  0.05673945       0.002
   0.09800451  0.08768825  0.05673945       0.003
   0.10832078  0.08768825  0.05673945       0.003
   0.11863704  0.08768825  0.05673945       0.003
   0.09800451  0.09800451  0.05673945       0.002
   0.10832078  0.09800451  0.05673945       0.003
   0.11863704  0.09800451  0.05673945       0.003
   0.10832078  0.10832078  0.05673945       0.002
   0.11863704  0.10832078  0.05673945       0.003
   0.11863704  0.11863704  0.05673945       0.002
   0.06705572  0.06705572  0.06705572       0.001
   0.07737198  0.06705572  0.06705572       0.002
   0.08768825  0.06705572  0.06705572       0.002
   0.09800451  0.06705572  0.06705572       0.002
   0.10832078  0.06705572  0.06705572       0.002
   0.11863704  0.06705572  0.06705572       0.002
   0.07737198  0.07737198  0.06705572       0.002
   0.08768825  0.07737198  0.06705572       0.003
   0.09800451  0.07737198  0.06705572       0.003
   0.10832078  0.07737198  0.06705572       0.003
   0.11863704  0.07737198  0.06705572       0.003
   0.08768825  0.08768825  0.06705572       0.002
   0.09800451  0.08768825  0.06705572       0.003
   0.10832078  0.08768825  0.06705572       0.003
   0.11863704  0.08768825  0.06705572       0.003
   0.09800451  0.09800451  0.06705572       0.002
   0.10832078  0.09800451  0.06705572       0.003
   0.11863704  0.09800451  0.06705572       0.003
   0.10832078  0.10832078  0.06705572       0.002
   0.11863704  0.10832078  0.06705572       0.003
   0.11863704  0.11863704  0.06705572       0.002
   0.07737198  0.07737198  0.07737198       0.001
   0.08768825  0.07737198  0.07737198       0.002
   0.09800451  0.07737198  0.07737198       0.002
   0.10832078  0.07737198  0.07737198       0.002
   0.11863704  0.07737198  0.07737198       0.002
   0.08768825  0.08768825  0.07737198       0.002
   0.09800451  0.08768825  0.07737198       0.003
   0.10832078  0.08768825  0.07737198       0.003
   0.11863704  0.08768825  0.07737198       0.003
   0.09800451  0.09800451  0.07737198       0.002
   0.10832078  0.09800451  0.07737198       0.003
   0.11863704  0.09800451  0.07737198       0.003
   0.10832078  0.10832078  0.07737198       0.002
   0.11863704  0.10832078  0.07737198       0.003
   0.11863704  0.11863704  0.07737198       0.002
   0.08768825  0.08768825  0.08768825       0.001
   0.09800451  0.08768825  0.08768825       0.002
   0.10832078  0.08768825  0.08768825       0.002
   0.11863704  0.08768825  0.08768825       0.002
   0.09800451  0.09800451  0.08768825       0.002
   0.10832078  0.09800451  0.08768825       0.003
   0.11863704  0.09800451  0.08768825       0.003
   0.10832078  0.10832078  0.08768825       0.002
   0.11863704  0.10832078  0.08768825       0.003
   0.11863704  0.11863704  0.08768825       0.002
   0.09800451  0.09800451  0.09800451       0.001
   0.10832078  0.09800451  0.09800451       0.002
   0.11863704  0.09800451  0.09800451       0.002
   0.10832078  0.10832078  0.09800451       0.002
   0.11863704  0.10832078  0.09800451       0.003
   0.11863704  0.11863704  0.09800451       0.002
   0.10832078  0.10832078  0.10832078       0.001
   0.11863704  0.10832078  0.10832078       0.002
   0.11863704  0.11863704  0.10832078       0.002
   0.11863704  0.11863704  0.11863704       0.001

 k-points in reciprocal lattice and weights: Automatic kpoint scheme                 
   0.02083333  0.02083333  0.02083333       0.001
   0.06250000  0.02083333  0.02083333       0.002
   0.10416667  0.02083333  0.02083333       0.002
   0.14583333  0.02083333  0.02083333       0.002
   0.18750000  0.02083333  0.02083333       0.002
   0.22916667  0.02083333  0.02083333       0.002
   0.27083333  0.02083333  0.02083333       0.002
   0.31250000  0.02083333  0.02083333       0.002
   0.35416667  0.02083333  0.02083333       0.002
   0.39583333  0.02083333  0.02083333       0.002
   0.43750000  0.02083333  0.02083333       0.002
   0.47916667  0.02083333  0.02083333       0.002
   0.06250000  0.06250000  0.02083333       0.002
   0.10416667  0.06250000  0.02083333       0.003
   0.14583333  0.06250000  0.02083333       0.003
   0.18750000  0.06250000  0.02083333       0.003
   0.22916667  0.06250000  0.02083333       0.003
   0.27083333  0.06250000  0.02083333       0.003
   0.31250000  0.06250000  0.02083333       0.003
   0.35416667  0.06250000  0.02083333       0.003
   0.39583333  0.06250000  0.02083333       0.003
   0.43750000  0.06250000  0.02083333       0.003
   0.47916667  0.06250000  0.02083333       0.003
   0.10416667  0.10416667  0.02083333       0.002
   0.14583333  0.10416667  0.02083333       0.003
   0.18750000  0.10416667  0.02083333       0.003
   0.22916667  0.10416667  0.02083333       0.003
   0.27083333  0.10416667  0.02083333       0.003
   0.31250000  0.10416667  0.02083333       0.003
   0.35416667  0.10416667  0.02083333       0.003
   0.39583333  0.10416667  0.02083333       0.003
   0.43750000  0.10416667  0.02083333       0.003
   0.47916667  0.10416667  0.02083333       0.003
   0.14583333  0.14583333  0.02083333       0.002
   0.18750000  0.14583333  0.02083333       0.003
   0.22916667  0.14583333  0.02083333       0.003
   0.27083333  0.14583333  0.02083333       0.003
   0.31250000  0.14583333  0.02083333       0.003
   0.35416667  0.14583333  0.02083333       0.003
   0.39583333  0.14583333  0.02083333       0.003
   0.43750000  0.14583333  0.02083333       0.003
   0.47916667  0.14583333  0.02083333       0.003
   0.18750000  0.18750000  0.02083333       0.002
   0.22916667  0.18750000  0.02083333       0.003
   0.27083333  0.18750000  0.02083333       0.003
   0.31250000  0.18750000  0.02083333       0.003
   0.35416667  0.18750000  0.02083333       0.003
   0.39583333  0.18750000  0.02083333       0.003
   0.43750000  0.18750000  0.02083333       0.003
   0.47916667  0.18750000  0.02083333       0.003
   0.22916667  0.22916667  0.02083333       0.002
   0.27083333  0.22916667  0.02083333       0.003
   0.31250000  0.22916667  0.02083333       0.003
   0.35416667  0.22916667  0.02083333       0.003
   0.39583333  0.22916667  0.02083333       0.003
   0.43750000  0.22916667  0.02083333       0.003
   0.47916667  0.22916667  0.02083333       0.003
   0.27083333  0.27083333  0.02083333       0.002
   0.31250000  0.27083333  0.02083333       0.003
   0.35416667  0.27083333  0.02083333       0.003
   0.39583333  0.27083333  0.02083333       0.003
   0.43750000  0.27083333  0.02083333       0.003
   0.47916667  0.27083333  0.02083333       0.003
   0.31250000  0.31250000  0.02083333       0.002
   0.35416667  0.31250000  0.02083333       0.003
   0.39583333  0.31250000  0.02083333       0.003
   0.43750000  0.31250000  0.02083333       0.003
   0.47916667  0.31250000  0.02083333       0.003
   0.35416667  0.35416667  0.02083333       0.002
   0.39583333  0.35416667  0.02083333       0.003
   0.43750000  0.35416667  0.02083333       0.003
   0.47916667  0.35416667  0.02083333       0.003
   0.39583333  0.39583333  0.02083333       0.002
   0.43750000  0.39583333  0.02083333       0.003
   0.47916667  0.39583333  0.02083333       0.003
   0.43750000  0.43750000  0.02083333       0.002
   0.47916667  0.43750000  0.02083333       0.003
   0.47916667  0.47916667  0.02083333       0.002
   0.06250000  0.06250000  0.06250000       0.001
   0.10416667  0.06250000  0.06250000       0.002
   0.14583333  0.06250000  0.06250000       0.002
   0.18750000  0.06250000  0.06250000       0.002
   0.22916667  0.06250000  0.06250000       0.002
   0.27083333  0.06250000  0.06250000       0.002
   0.31250000  0.06250000  0.06250000       0.002
   0.35416667  0.06250000  0.06250000       0.002
   0.39583333  0.06250000  0.06250000       0.002
   0.43750000  0.06250000  0.06250000       0.002
   0.47916667  0.06250000  0.06250000       0.002
   0.10416667  0.10416667  0.06250000       0.002
   0.14583333  0.10416667  0.06250000       0.003
   0.18750000  0.10416667  0.06250000       0.003
   0.22916667  0.10416667  0.06250000       0.003
   0.27083333  0.10416667  0.06250000       0.003
   0.31250000  0.10416667  0.06250000       0.003
   0.35416667  0.10416667  0.06250000       0.003
   0.39583333  0.10416667  0.06250000       0.003
   0.43750000  0.10416667  0.06250000       0.003
   0.47916667  0.10416667  0.06250000       0.003
   0.14583333  0.14583333  0.06250000       0.002
   0.18750000  0.14583333  0.06250000       0.003
   0.22916667  0.14583333  0.06250000       0.003
   0.27083333  0.14583333  0.06250000       0.003
   0.31250000  0.14583333  0.06250000       0.003
   0.35416667  0.14583333  0.06250000       0.003
   0.39583333  0.14583333  0.06250000       0.003
   0.43750000  0.14583333  0.06250000       0.003
   0.47916667  0.14583333  0.06250000       0.003
   0.18750000  0.18750000  0.06250000       0.002
   0.22916667  0.18750000  0.06250000       0.003
   0.27083333  0.18750000  0.06250000       0.003
   0.31250000  0.18750000  0.06250000       0.003
   0.35416667  0.18750000  0.06250000       0.003
   0.39583333  0.18750000  0.06250000       0.003
   0.43750000  0.18750000  0.06250000       0.003
   0.47916667  0.18750000  0.06250000       0.003
   0.22916667  0.22916667  0.06250000       0.002
   0.27083333  0.22916667  0.06250000       0.003
   0.31250000  0.22916667  0.06250000       0.003
   0.35416667  0.22916667  0.06250000       0.003
   0.39583333  0.22916667  0.06250000       0.003
   0.43750000  0.22916667  0.06250000       0.003
   0.47916667  0.22916667  0.06250000       0.003
   0.27083333  0.27083333  0.06250000       0.002
   0.31250000  0.27083333  0.06250000       0.003
   0.35416667  0.27083333  0.06250000       0.003
   0.39583333  0.27083333  0.06250000       0.003
   0.43750000  0.27083333  0.06250000       0.003
   0.47916667  0.27083333  0.06250000       0.003
   0.31250000  0.31250000  0.06250000       0.002
   0.35416667  0.31250000  0.06250000       0.003
   0.39583333  0.31250000  0.06250000       0.003
   0.43750000  0.31250000  0.06250000       0.003
   0.47916667  0.31250000  0.06250000       0.003
   0.35416667  0.35416667  0.06250000       0.002
   0.39583333  0.35416667  0.06250000       0.003
   0.43750000  0.35416667  0.06250000       0.003
   0.47916667  0.35416667  0.06250000       0.003
   0.39583333  0.39583333  0.06250000       0.002
   0.43750000  0.39583333  0.06250000       0.003
   0.47916667  0.39583333  0.06250000       0.003
   0.43750000  0.43750000  0.06250000       0.002
   0.47916667  0.43750000  0.06250000       0.003
   0.47916667  0.47916667  0.06250000       0.002
   0.10416667  0.10416667  0.10416667       0.001
   0.14583333  0.10416667  0.10416667       0.002
   0.18750000  0.10416667  0.10416667       0.002
   0.22916667  0.10416667  0.10416667       0.002
   0.27083333  0.10416667  0.10416667       0.002
   0.31250000  0.10416667  0.10416667       0.002
   0.35416667  0.10416667  0.10416667       0.002
   0.39583333  0.10416667  0.10416667       0.002
   0.43750000  0.10416667  0.10416667       0.002
   0.47916667  0.10416667  0.10416667       0.002
   0.14583333  0.14583333  0.10416667       0.002
   0.18750000  0.14583333  0.10416667       0.003
   0.22916667  0.14583333  0.10416667       0.003
   0.27083333  0.14583333  0.10416667       0.003
[...]

 k-point   343 :       0.4792    0.4375    0.3125
  band No.  band energies     occupation 
      1       5.7109      2.00000
      2       6.1875      2.00000
      3       7.1068      2.00000
      4       7.5330      2.00000
      5      10.4184      2.00000
      6      10.8353      2.00000
      7      11.7273      2.00000
      8      12.1861      2.00000
      9      24.2881      0.00000
     10      24.6473      0.00000
     11      25.5522      0.00000
     12      26.0757      0.00000
     13      27.5122      0.00000
     14      27.5966      0.00000

 k-point   344 :       0.4792    0.4792    0.3125
  band No.  band energies     occupation 
      1       6.1472      2.00000
      2       6.6145      2.00000
      3       6.6145      2.00000
      4       7.0672      2.00000
      5      10.7970      2.00000
      6      11.2374      2.00000
      7      11.2374      2.00000
      8      11.6897      2.00000
      9      24.7371      0.00000
     10      25.1586      0.00000
     11      25.1586      0.00000
     12      25.6300      0.00000
     13      28.0567      0.00000
     14      28.1896      0.00000

 k-point   345 :       0.3542    0.3542    0.3542
  band No.  band energies     occupation 
      1       4.0386      2.00000
      2       7.3833      2.00000
      3       7.3833      2.00000
      4       7.3833      2.00000
      5      11.1015      2.00000
      6      11.1015      2.00000
      7      11.1015      2.00000
      8      14.3080      1.38363
      9      23.5073      0.00000
     10      23.5073      0.00000
     11      23.5073      0.00000
     12      26.5594      0.00000
     13      26.5594      0.00000
     14      26.5594      0.00000

 k-point   346 :       0.3958    0.3542    0.3542
  band No.  band energies     occupation 
      1       4.4105      2.00000
      2       6.8142      2.00000
      3       7.6897      2.00000
      4       7.6897      2.00000
      5      10.5728      2.00000
      6      10.5728      2.00000
      7      11.4270      2.00000
      8      13.7306      2.00009
      9      23.8078      0.00000
     10      23.8078      0.00000
     11      24.6029      0.00000
     12      26.6889      0.00000
     13      26.6889      0.00000
     14      26.8160      0.00000

 k-point   347 :       0.4375    0.3542    0.3542
  band No.  band energies     occupation 
      1       4.8207      2.00000
      2       6.2682      2.00000
      3       7.9825      2.00000
      4       7.9825      2.00000
      5      10.1312      2.00000
      6      10.1312      2.00000
      7      11.8031      2.00000
      8      13.1898      2.00000
      9      24.0342      0.00000
     10      24.0342      0.00000
     11      25.6839      0.00000
     12      26.6570      0.00000
     13      26.6570      0.00000
     14      27.1001      0.00000

 k-point   348 :       0.4792    0.3542    0.3542
  band No.  band energies     occupation 
      1       5.2684      2.00000
      2       5.7516      2.00000
      3       8.1885      2.00000
      4       8.1885      2.00000
      5       9.8507      2.00000
      6       9.8507      2.00000
      7      12.2241      2.00000
      8      12.6870      2.00000
      9      24.1607      0.00000
     10      24.1607      0.00000
     11      26.6004      0.00000
     12      26.6004      0.00000
     13      26.7244      0.00000
     14      27.4102      0.00000

 k-point   349 :       0.3958    0.3958    0.3542
  band No.  band energies     occupation 
      1       4.7796      2.00000
      2       7.1466      2.00000
      3       7.1466      2.00000
      4       7.9440      2.00000
      5      10.0923      2.00000
      6      10.8744      2.00000
      7      10.8744      2.00000
      8      13.1536      2.00000
      9      24.2072      0.00000
     10      24.8666      0.00000
     11      24.8666      0.00000
     12      26.9817      0.00000
     13      26.9819      0.00000
     14      27.0839      0.00000

 k-point   350 :       0.4375    0.3958    0.3542
  band No.  band energies     occupation 
      1       5.1867      2.00000
      2       6.6148      2.00000
      3       7.4942      2.00000
      4       8.1122      2.00000
      5       9.7719      2.00000
      6      10.3805      2.00000
      7      11.2385      2.00000
      8      12.6136      2.00000
      9      24.5424      0.00000
     10      24.9922      0.00000
     11      25.8732      0.00000
     12      27.0499      0.00000
     13      27.2307      0.00000
     14      27.3314      0.00000

 k-point   351 :       0.4792    0.3958    0.3542
  band No.  band energies     occupation 
      1       5.6299      2.00000
      2       6.1072      2.00000
      3       7.8280      2.00000
      4       8.0740      2.00000
      5       9.7322      2.00000
      6       9.9750      2.00000
      7      11.6532      2.00000
      8      12.1127      2.00000
      9      24.8050      0.00000
     10      24.9670      0.00000
     11      26.7510      0.00000
     12      27.1162      0.00000
     13      27.2007      0.00000
     14      27.4086      0.00000

 k-point   352 :       0.4375    0.4375    0.3542
  band No.  band energies     occupation 
      1       5.5893      2.00000
      2       6.9884      2.00000
      3       6.9884      2.00000
      4       8.0358      2.00000
      5       9.6925      2.00000
      6      10.7213      2.00000
      7      10.7213      2.00000
      8      12.0754      2.00000
      9      24.9719      0.00000
     10      25.8345      0.00000
     11      25.8345      0.00000
     12      27.5183      0.00000
     13      27.5472      0.00000
     14      27.5755      0.00000

 k-point   353 :       0.4792    0.4375    0.3542
  band No.  band energies     occupation 
      1       6.0266      2.00000
      2       6.4950      2.00000
      3       7.3768      2.00000
      4       7.7508      2.00000
      5       9.8964      2.00000
      6      10.2641      2.00000
      7      11.1245      2.00000
      8      11.5778      2.00000
      9      25.3382      0.00000
     10      25.6363      0.00000
     11      26.5140      0.00000
     12      27.0503      0.00000
     13      27.7221      0.00000
     14      27.7864      0.00000

 k-point   354 :       0.4792    0.4792    0.3542
  band No.  band energies     occupation 
      1       6.4550      2.00000
      2       6.9092      2.00000
      3       6.9092      2.00000
      4       7.3377      2.00000
      5      10.2251      2.00000
      6      10.6443      2.00000
      7      10.6443      2.00000
      8      11.0863      2.00000
      9      25.7903      0.00000
     10      26.1824      0.00000
     11      26.1824      0.00000
     12      26.6443      0.00000
     13      28.1955      0.00000
     14      28.3062      0.00000

 k-point   355 :       0.3958    0.3958    0.3958
  band No.  band energies     occupation 
      1       5.1457      2.00000
      2       7.4552      2.00000
      3       7.4552      2.00000
      4       7.4552      2.00000
      5      10.3420      2.00000
      6      10.3420      2.00000
      7      10.3420      2.00000
      8      12.5769      2.00000
      9      25.2902      0.00000
     10      25.2902      0.00000
     11      25.2902      0.00000
     12      27.3225      0.00000
     13      27.3225      0.00000
     14      27.3225      0.00000

 k-point   356 :       0.4375    0.3958    0.3958
  band No.  band energies     occupation 
      1       5.5488      2.00000
      2       6.9489      2.00000
      3       7.7509      2.00000
      4       7.7509      2.00000
      5       9.8966      2.00000
      6       9.8966      2.00000
      7      10.6831      2.00000
      8      12.0383      2.00000
      9      25.5847      0.00000
     10      25.5847      0.00000
     11      26.3461      0.00000
     12      27.4938      0.00000
     13      27.4938      0.00000
     14      27.5821      0.00000

 k-point   357 :       0.4792    0.3958    0.3958
  band No.  band energies     occupation 
      1       5.9863      2.00000
      2       6.4551      2.00000
      3       7.9596      2.00000
      4       7.9596      2.00000
      5       9.6129      2.00000
      6       9.6129      2.00000
      7      11.0866      2.00000
      8      11.5403      2.00000
      9      25.7422      0.00000
     10      25.7422      0.00000
     11      27.3360      0.00000
     12      27.5397      0.00000
     13      27.5405      0.00000
     14      27.8707      0.00000

 k-point   358 :       0.4375    0.4375    0.3958
  band No.  band energies     occupation 
      1       5.9460      2.00000
      2       7.2987      2.00000
      3       7.2987      2.00000
      4       7.9215      2.00000
      5       9.5729      2.00000
      6      10.1864      2.00000
      7      10.1864      2.00000
      8      11.5025      2.00000
      9      26.0314      0.00000
     10      26.5578      0.00000
     11      26.5578      0.00000
     12      27.8030      0.00000
     13      27.8031      0.00000
     14      27.8432      0.00000

 k-point   359 :       0.4792    0.4375    0.3958
  band No.  band energies     occupation 
      1       6.3751      2.00000
      2       6.8302      2.00000
      3       7.6350      2.00000
      4       7.8833      2.00000
      5       9.5328      2.00000
      6       9.7780      2.00000
      7      10.5674      2.00000
      8      11.0102      2.00000
      9      26.3518      0.00000
     10      26.5407      0.00000
     11      27.3669      0.00000
     12      27.9189      0.00000
     13      27.9592      0.00000
     14      27.9975      0.00000

 k-point   360 :       0.4792    0.4792    0.3958
  band No.  band energies     occupation 
      1       6.7905      2.00000
      2       7.2203      2.00000
      3       7.2203      2.00000
      4       7.5963      2.00000
      5       9.7383      2.00000
      6      10.1081      2.00000
      7      10.1081      2.00000
      8      10.5286      2.00000
      9      26.8075      0.00000
     10      27.1444      0.00000
     11      27.1444      0.00000
     12      27.5817      0.00000
     13      28.3899      0.00000
     14      28.4114      0.00000

 k-point   361 :       0.4375    0.4375    0.4375
  band No.  band energies     occupation 
      1       6.3351      2.00000
      2       7.5964      2.00000
      3       7.5964      2.00000
      4       7.5964      2.00000
      5       9.7384      2.00000
      6       9.7384      2.00000
      7       9.7384      2.00000
      8      10.9719      2.00000
      9      27.0409      0.00000
     10      27.0409      0.00000
     11      27.0410      0.00000
     12      28.0580      0.00000
     13      28.0599      0.00000
     14      28.0785      0.00000

 k-point   362 :       0.4792    0.4375    0.4375
  band No.  band energies     occupation 
      1       6.7509      2.00000
      2       7.1812      2.00000
      3       7.8071      2.00000
      4       7.8071      2.00000
      5       9.4523      2.00000
      6       9.4523      2.00000
      7      10.0689      2.00000
      8      10.4899      2.00000
      9      27.2672      0.00000
     10      27.2672      0.00000
     11      27.9306      0.00000
     12      28.2234      0.00000
     13      28.2242      0.00000
     14      28.2792      0.00000

 k-point   363 :       0.4792    0.4792    0.4375
  band No.  band energies     occupation 
      1       7.1420      2.00000
      2       7.5191      2.00000
      3       7.5191      2.00000
      4       7.7690      2.00000
      5       9.4120      2.00000
      6       9.6587      2.00000
      7       9.6587      2.00000
      8      10.0296      2.00000
      9      27.7277      0.00000
     10      27.9553      0.00000
     11      27.9565      0.00000
     12      28.3290      0.00000
     13      28.4695      0.00000
     14      28.4965      0.00000

 k-point   364 :       0.4792    0.4792    0.4792
  band No.  band energies     occupation 
      1       7.4805      2.00000
      2       7.7309      2.00000
      3       7.7309      2.00000
      4       7.7309      2.00000
      5       9.3715      2.00000
      6       9.3715      2.00000
      7       9.3715      2.00000
      8       9.6188      2.00000
      9      28.4207      0.00000
     10      28.4213      0.00000
     11      28.4228      0.00000
     12      28.5791      0.00000
     13      28.5892      0.00000
     14      28.6318      0.00000


--------------------------------------------------------------------------------------------------------


 soft charge-density along one line, spin component           1
         0         1         2         3         4         5         6         7         8         9
 total charge-density along one line

 pseudopotential strength for first ion, spin component:           1
  8.268  14.077  -0.000  -0.000  -0.000  -0.000  -0.000  -0.000
 14.077  23.969  -0.000  -0.000  -0.000  -0.000  -0.000  -0.000
 -0.000  -0.000   2.028  -0.000  -0.000   5.791  -0.000  -0.000
 -0.000  -0.000  -0.000   2.028   0.000  -0.000   5.791   0.000
 -0.000  -0.000  -0.000   0.000   2.028  -0.000   0.000   5.791
 -0.000  -0.000   5.791  -0.000  -0.000  16.477  -0.000  -0.000
 -0.000  -0.000  -0.000   5.791   0.000  -0.000  16.477   0.000
 -0.000  -0.000  -0.000   0.000   5.791  -0.000   0.000  16.477
 total augmentation occupancy for first ion, spin component:           1
  6.719  -2.274   0.000  -0.000  -0.000   0.000  -0.000  -0.000
 -2.274   0.829   0.000   0.000  -0.000   0.000   0.000  -0.000
  0.000   0.000   2.104   0.000  -0.000  -0.164  -0.000   0.000
 -0.000   0.000   0.000   2.104   0.000  -0.000  -0.164  -0.000
 -0.000  -0.000  -0.000   0.000   2.104   0.000  -0.000  -0.164
  0.000   0.000  -0.164  -0.000   0.000   0.014   0.000  -0.000
 -0.000   0.000  -0.000  -0.164  -0.000   0.000   0.014   0.000
 -0.000  -0.000   0.000  -0.000  -0.164  -0.000   0.000   0.014


------------------------ aborting loop because EDIFF is reached ----------------------------------------


    CHARGE:  cpu time      0.5117: real time      0.2569
    FORLOC:  cpu time      0.0003: real time      0.0003
    FORNL :  cpu time      3.5918: real time      1.7993
    STRESS:  cpu time     10.7770: real time      5.3977
    FORCOR:  cpu time      0.0253: real time      0.0133
    FORHAR:  cpu time      0.0081: real time      0.0041
    MIXING:  cpu time      0.0007: real time      0.0007
    OFIELD:  cpu time      0.0000: real time      0.0000

  FORCE on cell =-STRESS in cart. coord.  units (eV):
  Direction    XX          YY          ZZ          XY          YZ          ZX
  --------------------------------------------------------------------------------------
  Alpha Z    -1.35943    -1.35943    -1.35943
  Ewald    -116.28323  -116.28323  -116.28323    -0.00000     0.00000     0.00000
  Hartree     0.42221     0.42221     0.42221    -0.00000    -0.00000    -0.00000
  E(xc)     -41.62116   -41.62116   -41.62116    -0.00000    -0.00000    -0.00000
  Local       7.57306     7.57306     7.57306    -0.00000    -0.00000     0.00000
  n-local    96.10504    97.51384   102.45189     1.52014     3.79388     1.59035
  augment    -3.50139    -3.50139    -3.50139     0.00000     0.00000     0.00000
  Kinetic    81.34903    84.65357    90.96722     2.38644   -10.91185    -1.50896
  Fock        0.00000     0.00000     0.00000     0.00000     0.00000     0.00000
  -------------------------------------------------------------------------------------
  Total      29.57692    29.57692    29.57692    -0.00000     0.00000     0.00000
  in kB    1198.70814  1198.70814  1198.70814    -0.00000     0.00000     0.00000
  external pressure =     1198.71 kB  Pullay stress =        0.00 kB


 VOLUME and BASIS-vectors are now :
 -----------------------------------------------------------------------------
  energy-cutoff  :      400.00
  volume of cell :       39.53
      direct lattice vectors                 reciprocal lattice vectors
     3.406565236  0.000000000  0.000000000     0.293550815  0.000000000 -0.000000000
    -0.000000000  3.406565236  0.000000000     0.000000000  0.293550815  0.000000000
     0.000000000  0.000000000  3.406565236    -0.000000000 -0.000000000  0.293550815

  length of vectors
     3.406565236  3.406565236  3.406565236     0.293550815  0.293550815  0.293550815


 FORCES acting on ions
    electron-ion (+dipol)            ewald-force                    non-local-force                 convergence-correction
 -----------------------------------------------------------------------------------------------
   0.224E-14 -.644E-15 0.104E-14   -.170E-14 -.128E-14 -.218E-15   -.460E-26 0.874E-26 -.713E-25   -.163E-15 0.168E-16 0.127E-16
   0.210E-14 -.486E-14 -.338E-14   -.157E-14 0.150E-14 0.590E-15   0.201E-25 -.209E-25 -.671E-26   -.162E-15 -.780E-17 0.143E-16
   -.344E-14 -.157E-15 0.604E-13   0.150E-14 -.164E-14 0.235E-15   0.185E-25 0.190E-27 -.710E-26   0.316E-15 0.195E-16 0.159E-16
   -.414E-14 0.394E-13 0.644E-13   0.163E-14 0.114E-14 -.844E-15   -.322E-26 -.119E-25 -.131E-25   0.318E-15 -.146E-16 0.112E-16
 -----------------------------------------------------------------------------------------------
   -.325E-14 0.337E-13 0.122E-12   -.143E-15 -.288E-15 -.237E-15   0.308E-25 -.238E-25 -.983E-25   0.309E-15 0.139E-16 0.541E-16


 POSITION                                       TOTAL-FORCE (eV/Angst)
 -----------------------------------------------------------------------------------
      0.00000      0.00000      0.00000         0.000000     -0.000000     -0.000000
     -0.00000      1.70328      1.70328        -0.000000     -0.000000     -0.000000
      1.70328      0.00000      1.70328         0.000000     -0.000000      0.000000
      1.70328      1.70328      0.00000        -0.000000      0.000000     -0.000000
 -----------------------------------------------------------------------------------
    total drift:                               -0.000000      0.000000      0.000000


--------------------------------------------------------------------------------------------------------



  FREE ENERGIE OF THE ION-ELECTRON SYSTEM (eV)
  ---------------------------------------------------
  free  energy   TOTEN  =        -8.61990331 eV

  energy  without entropy=       -8.61897778  energy(sigma->0) =       -8.61959480



--------------------------------------------------------------------------------------------------------


    POTLOK:  cpu time      0.0385: real time      0.0185


--------------------------------------------------------------------------------------------------------




--------------------------------------------------------------------------------------------------------


  
 reached required accuracy - stopping structural energy minimisation
     LOOP+:  cpu time    195.1644: real time     99.5121
    4ORBIT:  cpu time      0.0000: real time      0.0000

 total amount of memory used by VASP MPI-rank0    37285. kBytes
=======================================================================

   base      :      30000. kBytes
   nonlr-proj:       1323. kBytes
   fftplans  :        368. kBytes
   grid      :       1016. kBytes
   one-center:         12. kBytes
   wavefun   :       4566. kBytes

  
  
 General timing and accounting informations for this job:
 ========================================================
  
                  Total CPU time used (sec):      199.522
                            User time (sec):      197.020
                          System time (sec):        2.503
                         Elapsed time (sec):      103.105
  
                   Maximum memory used (kb):       60032.
                   Average memory used (kb):          N/A
  
                          Minor page faults:        32414
                          Major page faults:           20
                 Voluntary context switches:         2093
