<?xml version="1.0" encoding="ISO-8859-1"?>
<modeling>
 <generator>
  <i name="program" type="string">vasp </i>
  <i name="version" type="string">6.4.2  </i>
  <i name="subversion" type="string">20Jul23 (build Apr 22 2024 22:35:45) complex                          parallel </i>
  <i name="platform" type="string">LinuxGNU </i>
  <i name="date" type="string">2024 05 26 </i>
  <i name="time" type="string">15:35:44 </i>
 </generator>
 <incar>
  <i type="string" name="SYSTEM">Al fcc relaxation</i>
  <i type="string" name="PREC">Accurate</i>
  <i type="string" name="ALGO">Fast</i>
  <i type="int" name="NELM">    60</i>
  <i type="int" name="NELMIN">     4</i>
  <i type="int" name="IBRION">     2</i>
  <i name="EDIFF">      0.00000100</i>
  <i type="int" name="NSW">   100</i>
  <i type="int" name="ISIF">     4</i>
  <i name="ENCUT">    400.00000000</i>
  <i type="string" name="LREAL">Auto</i>
  <i type="int" name="ISMEAR">     1</i>
  <i name="SIGMA">      0.20000000</i>
  <i name="KSPACING">      0.08000000</i>
  <i type="logical" name="LWAVE"> F  </i>
  <i type="logical" name="LCHARG"> F  </i>
 </incar>
 <primitive_cell>
  <structure name="primitive_cell" >
   <crystal>
    <varray name="basis" >
     <v>       1.70328262      -1.70328262       0.00000000 </v>
     <v>       1.70328262       0.00000000       1.70328262 </v>
     <v>       0.00000000      -1.70328262       1.70328262 </v>
    </varray>
    <i name="volume">      9.88303058 </i>
    <varray name="rec_basis" >
     <v>       0.29355081      -0.29355081      -0.29355081 </v>
     <v>       0.29355081       0.29355081       0.29355081 </v>
     <v>      -0.29355081      -0.29355081       0.29355081 </v>
    </varray>
   </crystal>
   <varray name="positions" >
    <v>       0.00000000       0.00000000       0.00000000 </v>
   </varray>
  </structure>
  <varray name="primitive_index" >
   <v type="int" >        1 </v>
  </varray>
 </primitive_cell>
 <kpoints>
  <generation param="Monkhorst-Pack">
   <v type="int" name="divisions">      24       24       24 </v>
   <v name="usershift">      0.00000000       0.00000000       0.00000000 </v>
   <v name="genvec1">      0.04166667      -0.00000000       0.00000000 </v>
   <v name="genvec2">      0.00000000       0.04166667       0.00000000 </v>
   <v name="genvec3">      0.00000000       0.00000000       0.04166667 </v>
   <v name="shift">      0.50000000       0.50000000       0.50000000 </v>
  </generation>
  <varray name="kpointlist" >
   <v>       0.02083333       0.02083333       0.02083333 </v>
   <v>       0.06250000       0.02083333       0.02083333 </v>
   <v>       0.10416667       0.02083333       0.02083333 </v>
   <v>       0.14583333       0.02083333       0.02083333 </v>
   <v>       0.18750000       0.02083333       0.02083333 </v>
   <v>       0.22916667       0.02083333       0.02083333 </v>
   <v>       0.27083333       0.02083333       0.02083333 </v>
   <v>       0.31250000       0.02083333       0.02083333 </v>
   <v>       0.35416667       0.02083333       0.02083333 </v>
   <v>       0.39583333       0.02083333       0.02083333 </v>
   <v>       0.43750000       0.02083333       0.02083333 </v>
   <v>       0.47916667       0.02083333       0.02083333 </v>
   <v>       0.06250000       0.06250000       0.02083333 </v>
   <v>       0.10416667       0.06250000       0.02083333 </v>
   <v>       0.14583333       0.06250000       0.02083333 </v>
   <v>       0.18750000       0.06250000       0.02083333 </v>
   <v>       0.22916667       0.06250000       0.02083333 </v>
   <v>       0.27083333       0.06250000       0.02083333 </v>
   <v>       0.31250000       0.06250000       0.02083333 </v>
   <v>       0.35416667       0.06250000       0.02083333 </v>
   <v>       0.39583333       0.06250000       0.02083333 </v>
   <v>       0.43750000       0.06250000       0.02083333 </v>
   <v>       0.47916667       0.06250000       0.02083333 </v>
   <v>       0.10416667       0.10416667       0.02083333 </v>
   <v>       0.14583333       0.10416667       0.02083333 </v>
   <v>       0.18750000       0.10416667       0.02083333 </v>
   <v>       0.22916667       0.10416667       0.02083333 </v>
   <v>       0.27083333       0.10416667       0.02083333 </v>
   <v>       0.31250000       0.10416667       0.02083333 </v>
   <v>       0.35416667       0.10416667       0.02083333 </v>
   <v>       0.39583333       0.10416667       0.02083333 </v>
   <v>       0.43750000       0.10416667       0.02083333 </v>
   <v>       0.47916667       0.10416667       0.02083333 </v>
   <v>       0.14583333       0.14583333       0.02083333 </v>
   <v>       0.18750000       0.14583333       0.02083333 </v>
   <v>       0.22916667       0.14583333       0.02083333 </v>
   <v>       0.27083333       0.14583333       0.02083333 </v>
   <v>       0.31250000       0.14583333       0.02083333 </v>
   <v>       0.35416667       0.14583333       0.02083333 </v>
   <v>       0.39583333       0.14583333       0.02083333 </v>
   <v>       0.43750000       0.14583333       0.02083333 </v>
   <v>       0.47916667       0.14583333       0.02083333 </v>
   <v>       0.18750000       0.18750000       0.02083333 </v>
   <v>       0.22916667       0.18750000       0.02083333 </v>
   <v>       0.27083333       0.18750000       0.02083333 </v>
   <v>       0.31250000       0.18750000       0.02083333 </v>
   <v>       0.35416667       0.18750000       0.02083333 </v>
   <v>       0.39583333       0.18750000       0.02083333 </v>
   <v>       0.43750000       0.18750000       0.02083333 </v>
   <v>       0.47916667       0.18750000       0.02083333 </v>
   <v>       0.22916667       0.22916667       0.02083333 </v>
   <v>       0.27083333       0.22916667       0.02083333 </v>
   <v>       0.31250000       0.22916667       0.02083333 </v>
   <v>       0.35416667       0.22916667       0.02083333 </v>
   <v>       0.39583333       0.22916667       0.02083333 </v>
   <v>       0.43750000       0.22916667       0.02083333 </v>
   <v>       0.47916667       0.22916667       0.02083333 </v>
   <v>       0.27083333       0.27083333       0.02083333 </v>
   <v>       0.31250000       0.27083333       0.02083333 </v>
   <v>       0.35416667       0.27083333       0.02083333 </v>
   <v>       0.39583333       0.27083333       0.02083333 </v>
   <v>       0.43750000       0.27083333       0.02083333 </v>
   <v>       0.47916667       0.27083333       0.02083333 </v>
   <v>       0.31250000       0.31250000       0.02083333 </v>
   <v>       0.35416667       0.31250000       0.02083333 </v>
   <v>       0.39583333       0.31250000       0.02083333 </v>
   <v>       0.43750000       0.31250000       0.02083333 </v>
   <v>       0.47916667       0.31250000       0.02083333 </v>
   <v>       0.35416667       0.35416667       0.02083333 </v>
   <v>       0.39583333       0.35416667       0.02083333 </v>
   <v>       0.43750000       0.35416667       0.02083333 </v>
   <v>       0.47916667       0.35416667       0.02083333 </v>
   <v>       0.39583333       0.39583333       0.02083333 </v>
   <v>       0.43750000       0.39583333       0.02083333 </v>
   <v>       0.47916667       0.39583333       0.02083333 </v>
   <v>       0.43750000       0.43750000       0.02083333 </v>
   <v>       0.47916667       0.43750000       0.02083333 </v>
   <v>       0.47916667       0.47916667       0.02083333 </v>
   <v>       0.06250000       0.06250000       0.06250000 </v>
   <v>       0.10416667       0.06250000       0.06250000 </v>
   <v>       0.14583333       0.06250000       0.06250000 </v>
   <v>       0.18750000       0.06250000       0.06250000 </v>
   <v>       0.22916667       0.06250000       0.06250000 </v>
   <v>       0.27083333       0.06250000       0.06250000 </v>
   <v>       0.31250000       0.06250000       0.06250000 </v>
   <v>       0.35416667       0.06250000       0.06250000 </v>
   <v>       0.39583333       0.06250000       0.06250000 </v>
   <v>       0.43750000       0.06250000       0.06250000 </v>
   <v>       0.47916667       0.06250000       0.06250000 </v>
   <v>       0.10416667       0.10416667       0.06250000 </v>
   <v>       0.14583333       0.10416667       0.06250000 </v>
   <v>       0.18750000       0.10416667       0.06250000 </v>
   <v>       0.22916667       0.10416667       0.06250000 </v>
   <v>       0.27083333       0.10416667       0.06250000 </v>
   <v>       0.31250000       0.10416667       0.06250000 </v>
   <v>       0.35416667       0.10416667       0.06250000 </v>
   <v>       0.39583333       0.10416667       0.06250000 </v>
   <v>       0.43750000       0.10416667       0.06250000 </v>
   <v>       0.47916667       0.10416667       0.06250000 </v>
   <v>       0.14583333       0.14583333       0.06250000 </v>
   <v>       0.18750000       0.14583333       0.06250000 </v>
   <v>       0.22916667       0.14583333       0.06250000 </v>
   <v>       0.27083333       0.14583333       0.06250000 </v>
   <v>       0.31250000       0.14583333       0.06250000 </v>
   <v>       0.35416667       0.14583333       0.06250000 </v>
   <v>       0.39583333       0.14583333       0.06250000 </v>
   <v>       0.43750000       0.14583333       0.06250000 </v>
   <v>       0.47916667       0.14583333       0.06250000 </v>
   <v>       0.18750000       0.18750000       0.06250000 </v>
   <v>       0.22916667       0.18750000       0.06250000 </v>
   <v>       0.27083333       0.18750000       0.06250000 </v>
   <v>       0.31250000       0.18750000       0.06250000 </v>
   <v>       0.35416667       0.18750000       0.06250000 </v>
   <v>       0.39583333       0.18750000       0.06250000 </v>
   <v>       0.43750000       0.18750000       0.06250000 </v>
   <v>       0.47916667       0.18750000       0.06250000 </v>
   <v>       0.22916667       0.22916667       0.06250000 </v>
   <v>       0.27083333       0.22916667       0.06250000 </v>
   <v>       0.31250000       0.22916667       0.06250000 </v>
   <v>       0.35416667       0.22916667       0.06250000 </v>
   <v>       0.39583333       0.22916667       0.06250000 </v>
   <v>       0.43750000       0.22916667       0.06250000 </v>
   <v>       0.47916667       0.22916667       0.06250000 </v>
   <v>       0.27083333       0.27083333       0.06250000 </v>
   <v>       0.31250000       0.27083333       0.06250000 </v>
   <v>       0.35416667       0.27083333       0.06250000 </v>
   <v>       0.39583333       0.27083333       0.06250000 </v>
   <v>       0.43750000       0.27083333       0.06250000 </v>
   <v>       0.47916667       0.27083333       0.06250000 </v>
   <v>       0.31250000       0.31250000       0.06250000 </v>
   <v>       0.35416667       0.31250000       0.06250000 </v>
   <v>       0.39583333       0.31250000       0.06250000 </v>
   <v>       0.43750000       0.31250000       0.06250000 </v>
   <v>       0.47916667       0.31250000       0.06250000 </v>
   <v>       0.35416667       0.35416667       0.06250000 </v>
   <v>       0.39583333       0.35416667       0.06250000 </v>
   <v>       0.43750000       0.35416667       0.06250000 </v>
   <v>       0.47916667       0.35416667       0.06250000 </v>
   <v>       0.39583333       0.39583333       0.06250000 </v>
   <v>       0.43750000       0.39583333       0.06250000 </v>
   <v>       0.47916667       0.39583333       0.06250000 </v>
   <v>       0.43750000       0.43750000       0.06250000 </v>
   <v>       0.47916667       0.43750000       0.06250000 </v>
   <v>       0.47916667       0.47916667       0.06250000 </v>
   <v>       0.10416667       0.10416667       0.10416667 </v>
   <v>       0.14583333       0.10416667       0.10416667 </v>
   <v>       0.18750000       0.10416667       0.10416667 </v>
   <v>       0.22916667       0.10416667       0.10416667 </v>
   <v>       0.27083333       0.10416667       0.10416667 </v>
   <v>       0.31250000       0.10416667       0.10416667 </v>
   <v>       0.35416667       0.10416667       0.10416667 </v>
   <v>       0.39583333       0.10416667       0.10416667 </v>
   <v>       0.43750000       0.10416667       0.10416667 </v>
   <v>       0.47916667       0.10416667       0.10416667 </v>
   <v>       0.14583333       0.14583333       0.10416667 </v>
   <v>       0.18750000       0.14583333       0.10416667 </v>
   <v>       0.22916667       0.14583333       0.10416667 </v>
   <v>       0.27083333       0.14583333       0.10416667 </v>
   <v>       0.31250000       0.14583333       0.10416667 </v>
   <v>       0.35416667       0.14583333       0.10416667 </v>
   <v>       0.39583333       0.14583333       0.10416667 </v>
   <v>       0.43750000       0.14583333       0.10416667 </v>
   <v>       0.47916667       0.14583333       0.10416667 </v>
   <v>       0.18750000       0.18750000       0.10416667 </v>
   <v>       0.22916667       0.18750000       0.10416667 </v>
   <v>       0.27083333       0.18750000       0.10416667 </v>
   <v>       0.31250000       0.18750000       0.10416667 </v>
   <v>       0.35416667       0.18750000       0.10416667 </v>
   <v>       0.39583333       0.18750000       0.10416667 </v>
   <v>       0.43750000       0.18750000       0.10416667 </v>
   <v>       0.47916667       0.18750000       0.10416667 </v>
   <v>       0.22916667       0.22916667       0.10416667 </v>
   <v>       0.27083333       0.22916667       0.10416667 </v>
   <v>       0.31250000       0.22916667       0.10416667 </v>
   <v>       0.35416667       0.22916667       0.10416667 </v>
   <v>       0.39583333       0.22916667       0.10416667 </v>
   <v>       0.43750000       0.22916667       0.10416667 </v>
   <v>       0.47916667       0.22916667       0.10416667 </v>
   <v>       0.27083333       0.27083333       0.10416667 </v>
   <v>       0.31250000       0.27083333       0.10416667 </v>
   <v>       0.35416667       0.27083333       0.10416667 </v>
   <v>       0.39583333       0.27083333       0.10416667 </v>
   <v>       0.43750000       0.27083333       0.10416667 </v>
   <v>       0.47916667       0.27083333       0.10416667 </v>
   <v>       0.31250000       0.31250000       0.10416667 </v>
   <v>       0.35416667       0.31250000       0.10416667 </v>
   <v>       0.39583333       0.31250000       0.10416667 </v>
   <v>       0.43750000       0.31250000       0.10416667 </v>
   <v>       0.47916667       0.31250000       0.10416667 </v>
   <v>       0.35416667       0.35416667       0.10416667 </v>
   <v>       0.39583333       0.35416667       0.10416667 </v>
   <v>       0.43750000       0.35416667       0.10416667 </v>
   <v>       0.47916667       0.35416667       0.10416667 </v>
   <v>       0.39583333       0.39583333       0.10416667 </v>
   <v>       0.43750000       0.39583333       0.10416667 </v>
   <v>       0.47916667       0.39583333       0.10416667 </v>
   <v>       0.43750000       0.43750000       0.10416667 </v>
   <v>       0.47916667       0.43750000       0.10416667 </v>
   <v>       0.47916667       0.47916667       0.10416667 </v>
   <v>       0.14583333       0.14583333       0.14583333 </v>
   <v>       0.18750000       0.14583333       0.14583333 </v>
   <v>       0.22916667       0.14583333       0.14583333 </v>
   <v>       0.27083333       0.14583333       0.14583333 </v>
   <v>       0.31250000       0.14583333       0.14583333 </v>
   <v>       0.35416667       0.14583333       0.14583333 </v>
   <v>       0.39583333       0.14583333       0.14583333 </v>
   <v>       0.43750000       0.14583333       0.14583333 </v>
   <v>       0.47916667       0.14583333       0.14583333 </v>
   <v>       0.18750000       0.18750000       0.14583333 </v>
   <v>       0.22916667       0.18750000       0.14583333 </v>
   <v>       0.27083333       0.18750000       0.14583333 </v>
   <v>       0.31250000       0.18750000       0.14583333 </v>
   <v>       0.35416667       0.18750000       0.14583333 </v>
   <v>       0.39583333       0.18750000       0.14583333 </v>
   <v>       0.43750000       0.18750000       0.14583333 </v>
   <v>       0.47916667       0.18750000       0.14583333 </v>
   <v>       0.22916667       0.22916667       0.14583333 </v>
   <v>       0.27083333       0.22916667       0.14583333 </v>
   <v>       0.31250000       0.22916667       0.14583333 </v>
   <v>       0.35416667       0.22916667       0.14583333 </v>
   <v>       0.39583333       0.22916667       0.14583333 </v>
   <v>       0.43750000       0.22916667       0.14583333 </v>
   <v>       0.47916667       0.22916667       0.14583333 </v>
   <v>       0.27083333       0.27083333       0.14583333 </v>
   <v>       0.31250000       0.27083333       0.14583333 </v>
   <v>       0.35416667       0.27083333       0.14583333 </v>
   <v>       0.39583333       0.27083333       0.14583333 </v>
   <v>       0.43750000       0.27083333       0.14583333 </v>
   <v>       0.47916667       0.27083333       0.14583333 </v>
   <v>       0.31250000       0.31250000       0.14583333 </v>
   <v>       0.35416667       0.31250000       0.14583333 </v>
   <v>       0.39583333       0.31250000       0.14583333 </v>
   <v>       0.43750000       0.31250000       0.14583333 </v>
   <v>       0.47916667       0.31250000       0.14583333 </v>
   <v>       0.35416667       0.35416667       0.14583333 </v>
   <v>       0.39583333       0.35416667       0.14583333 </v>
   <v>       0.43750000       0.35416667       0.14583333 </v>
   <v>       0.47916667       0.35416667       0.14583333 </v>
   <v>       0.39583333       0.39583333       0.14583333 </v>
   <v>       0.43750000       0.39583333       0.14583333 </v>
   <v>       0.47916667       0.39583333       0.14583333 </v>
   <v>       0.43750000       0.43750000       0.14583333 </v>
   <v>       0.47916667       0.43750000       0.14583333 </v>
   <v>       0.47916667       0.47916667       0.14583333 </v>
   <v>       0.18750000       0.18750000       0.18750000 </v>
   <v>       0.22916667       0.18750000       0.18750000 </v>
   <v>       0.27083333       0.18750000       0.18750000 </v>
   <v>       0.31250000       0.18750000       0.18750000 </v>
   <v>       0.35416667       0.18750000       0.18750000 </v>
   <v>       0.39583333       0.18750000       0.18750000 </v>
   <v>       0.43750000       0.18750000       0.18750000 </v>
   <v>       0.47916667       0.18750000       0.18750000 </v>
   <v>       0.22916667       0.22916667       0.18750000 </v>
   <v>       0.27083333       0.22916667       0.18750000 </v>
   <v>       0.31250000       0.22916667       0.18750000 </v>
   <v>       0.35416667       0.22916667       0.18750000 </v>
   <v>       0.39583333       0.22916667       0.18750000 </v>
   <v>       0.43750000       0.22916667       0.18750000 </v>
   <v>       0.47916667       0.22916667       0.18750000 </v>
   <v>       0.27083333       0.27083333       0.18750000 </v>
   <v>       0.31250000       0.27083333       0.18750000 </v>
   <v>       0.35416667       0.27083333       0.18750000 </v>
   <v>       0.39583333       0.27083333       0.18750000 </v>
   <v>       0.43750000       0.27083333       0.18750000 </v>
   <v>       0.47916667       0.27083333       0.18750000 </v>
   <v>       0.31250000       0.31250000       0.18750000 </v>
   <v>       0.35416667       0.31250000       0.18750000 </v>
   <v>       0.39583333       0.31250000       0.18750000 </v>
   <v>       0.43750000       0.31250000       0.18750000 </v>
   <v>       0.47916667       0.31250000       0.18750000 </v>
   <v>       0.35416667       0.35416667       0.18750000 </v>
   <v>       0.39583333       0.35416667       0.18750000 </v>
   <v>       0.43750000       0.35416667       0.18750000 </v>
   <v>       0.47916667       0.35416667       0.18750000 </v>
   <v>       0.39583333       0.39583333       0.18750000 </v>
   <v>       0.43750000       0.39583333       0.18750000 </v>
   <v>       0.47916667       0.39583333       0.18750000 </v>
   <v>       0.43750000       0.43750000       0.18750000 </v>
   <v>       0.47916667       0.43750000       0.18750000 </v>
   <v>       0.47916667       0.47916667       0.18750000 </v>
   <v>       0.22916667       0.22916667       0.22916667 </v>
   <v>       0.27083333       0.22916667       0.22916667 </v>
   <v>       0.31250000       0.22916667       0.22916667 </v>
   <v>       0.35416667       0.22916667       0.22916667 </v>
   <v>       0.39583333       0.22916667       0.22916667 </v>
   <v>       0.43750000       0.22916667       0.22916667 </v>
   <v>       0.47916667       0.22916667       0.22916667 </v>
   <v>       0.27083333       0.27083333       0.22916667 </v>
   <v>       0.31250000       0.27083333       0.22916667 </v>
   <v>       0.35416667       0.27083333       0.22916667 </v>
   <v>       0.39583333       0.27083333       0.22916667 </v>
   <v>       0.43750000       0.27083333       0.22916667 </v>
   <v>       0.47916667       0.27083333       0.22916667 </v>
   <v>       0.31250000       0.31250000       0.22916667 </v>
   <v>       0.35416667       0.31250000       0.22916667 </v>
   <v>       0.39583333       0.31250000       0.22916667 </v>
   <v>       0.43750000       0.31250000       0.22916667 </v>
   <v>       0.47916667       0.31250000       0.22916667 </v>
   <v>       0.35416667       0.35416667       0.22916667 </v>
   <v>       0.39583333       0.35416667       0.22916667 </v>
   <v>       0.43750000       0.35416667       0.22916667 </v>
   <v>       0.47916667       0.35416667       0.22916667 </v>
   <v>       0.39583333       0.39583333       0.22916667 </v>
   <v>       0.43750000       0.39583333       0.22916667 </v>
   <v>       0.47916667       0.39583333       0.22916667 </v>
   <v>       0.43750000       0.43750000       0.22916667 </v>
   <v>       0.47916667       0.43750000       0.22916667 </v>
   <v>       0.47916667       0.47916667       0.22916667 </v>
   <v>       0.27083333       0.27083333       0.27083333 </v>
   <v>       0.31250000       0.27083333       0.27083333 </v>
   <v>       0.35416667       0.27083333       0.27083333 </v>
   <v>       0.39583333       0.27083333       0.27083333 </v>
   <v>       0.43750000       0.27083333       0.27083333 </v>
   <v>       0.47916667       0.27083333       0.27083333 </v>
   <v>       0.31250000       0.31250000       0.27083333 </v>
   <v>       0.35416667       0.31250000       0.27083333 </v>
   <v>       0.39583333       0.31250000       0.27083333 </v>
   <v>       0.43750000       0.31250000       0.27083333 </v>
   <v>       0.47916667       0.31250000       0.27083333 </v>
   <v>       0.35416667       0.35416667       0.27083333 </v>
   <v>       0.39583333       0.35416667       0.27083333 </v>
   <v>       0.43750000       0.35416667       0.27083333 </v>
   <v>       0.47916667       0.35416667       0.27083333 </v>
   <v>       0.39583333       0.39583333       0.27083333 </v>
   <v>       0.43750000       0.39583333       0.27083333 </v>
   <v>       0.47916667       0.39583333       0.27083333 </v>
   <v>       0.43750000       0.43750000       0.27083333 </v>
   <v>       0.47916667       0.43750000       0.27083333 </v>
   <v>       0.47916667       0.47916667       0.27083333 </v>
   <v>       0.31250000       0.31250000       0.31250000 </v>
   <v>       0.35416667       0.31250000       0.31250000 </v>
   <v>       0.39583333       0.31250000       0.31250000 </v>
   <v>       0.43750000       0.31250000       0.31250000 </v>
   <v>       0.47916667       0.31250000       0.31250000 </v>
   <v>       0.35416667       0.35416667       0.31250000 </v>
   <v>       0.39583333       0.35416667       0.31250000 </v>
   <v>       0.43750000       0.35416667       0.31250000 </v>
   <v>       0.47916667       0.35416667       0.31250000 </v>
   <v>       0.39583333       0.39583333       0.31250000 </v>
   <v>       0.43750000       0.39583333       0.31250000 </v>
   <v>       0.47916667       0.39583333       0.31250000 </v>
   <v>       0.43750000       0.43750000       0.31250000 </v>
   <v>       0.47916667       0.43750000       0.31250000 </v>
   <v>       0.47916667       0.47916667       0.31250000 </v>
   <v>       0.35416667       0.35416667       0.35416667 </v>
   <v>       0.39583333       0.35416667       0.35416667 </v>
   <v>       0.43750000       0.35416667       0.35416667 </v>
   <v>       0.47916667       0.35416667       0.35416667 </v>
   <v>       0.39583333       0.39583333       0.35416667 </v>
   <v>       0.43750000       0.39583333       0.35416667 </v>
   <v>       0.47916667       0.39583333       0.35416667 </v>
   <v>       0.43750000       0.43750000       0.35416667 </v>
   <v>       0.47916667       0.43750000       0.35416667 </v>
   <v>       0.47916667       0.47916667       0.35416667 </v>
   <v>       0.39583333       0.39583333       0.39583333 </v>
   <v>       0.43750000       0.39583333       0.39583333 </v>
   <v>       0.47916667       0.39583333       0.39583333 </v>
   <v>       0.43750000       0.43750000       0.39583333 </v>
   <v>       0.47916667       0.43750000       0.39583333 </v>
   <v>       0.47916667       0.47916667       0.39583333 </v>
   <v>       0.43750000       0.43750000       0.43750000 </v>
   <v>       0.47916667       0.43750000       0.43750000 </v>
   <v>       0.47916667       0.47916667       0.43750000 </v>
   <v>       0.47916667       0.47916667       0.47916667 </v>
  </varray>
  <varray name="weights" >
   <v>       0.00057870 </v>
   <v>       0.00173611 </v>
   <v>       0.00173611 </v>
   <v>       0.00173611 </v>
   <v>       0.00173611 </v>
   <v>       0.00173611 </v>
   <v>       0.00173611 </v>
   <v>       0.00173611 </v>
   <v>       0.00173611 </v>
   <v>       0.00173611 </v>
   <v>       0.00173611 </v>
   <v>       0.00173611 </v>
   <v>       0.00173611 </v>
   <v>       0.00347222 </v>
   <v>       0.00347222 </v>
   <v>       0.00347222 </v>
   <v>       0.00347222 </v>
   <v>       0.00347222 </v>
   <v>       0.00347222 </v>
   <v>       0.00347222 </v>
   <v>       0.00347222 </v>
   <v>       0.00347222 </v>
   <v>       0.00347222 </v>
   <v>       0.00173611 </v>
   <v>       0.00347222 </v>
   <v>       0.00347222 </v>
   <v>       0.00347222 </v>
   <v>       0.00347222 </v>
   <v>       0.00347222 </v>
   <v>       0.00347222 </v>
   <v>       0.00347222 </v>
   <v>       0.00347222 </v>
   <v>       0.00347222 </v>
   <v>       0.00173611 </v>
   <v>       0.00347222 </v>
   <v>       0.00347222 </v>
   <v>       0.00347222 </v>
   <v>       0.00347222 </v>
   <v>       0.00347222 </v>
   <v>       0.00347222 </v>
   <v>       0.00347222 </v>
   <v>       0.00347222 </v>
   <v>       0.00173611 </v>
   <v>       0.00347222 </v>
   <v>       0.00347222 </v>
   <v>       0.00347222 </v>
   <v>       0.00347222 </v>
   <v>       0.00347222 </v>
   <v>       0.00347222 </v>
   <v>       0.00347222 </v>
   <v>       0.00173611 </v>
   <v>       0.00347222 </v>
   <v>       0.00347222 </v>
   <v>       0.00347222 </v>
   <v>       0.00347222 </v>
   <v>       0.00347222 </v>
   <v>       0.00347222 </v>
   <v>       0.00173611 </v>
   <v>       0.00347222 </v>
   <v>       0.00347222 </v>
   <v>       0.00347222 </v>
   <v>       0.00347222 </v>
   <v>       0.00347222 </v>
   <v>       0.00173611 </v>
   <v>       0.00347222 </v>
   <v>       0.00347222 </v>
   <v>       0.00347222 </v>
   <v>       0.00347222 </v>
   <v>       0.00173611 </v>
   <v>       0.00347222 </v>
   <v>       0.00347222 </v>
   <v>       0.00347222 </v>
   <v>       0.00173611 </v>
   <v>       0.00347222 </v>
   <v>       0.00347222 </v>
   <v>       0.00173611 </v>
   <v>       0.00347222 </v>
   <v>       0.00173611 </v>
   <v>       0.00057870 </v>
   <v>       0.00173611 </v>
   <v>       0.00173611 </v>
   <v>       0.00173611 </v>
   <v>       0.00173611 </v>
   <v>       0.00173611 </v>
   <v>       0.00173611 </v>
   <v>       0.00173611 </v>
   <v>       0.00173611 </v>
   <v>       0.00173611 </v>
   <v>       0.00173611 </v>
   <v>       0.00173611 </v>
   <v>       0.00347222 </v>
   <v>       0.00347222 </v>
   <v>       0.00347222 </v>
   <v>       0.00347222 </v>
   <v>       0.00347222 </v>
   <v>       0.00347222 </v>
   <v>       0.00347222 </v>
   <v>       0.00347222 </v>
   <v>       0.00347222 </v>
   <v>       0.00173611 </v>
   <v>       0.00347222 </v>
   <v>       0.00347222 </v>
   <v>       0.00347222 </v>
   <v>       0.00347222 </v>
   <v>       0.00347222 </v>
   <v>       0.00347222 </v>
   <v>       0.00347222 </v>
   <v>       0.00347222 </v>
   <v>       0.00173611 </v>
   <v>       0.00347222 </v>
   <v>       0.00347222 </v>
   <v>       0.00347222 </v>
   <v>       0.00347222 </v>
   <v>       0.00347222 </v>
   <v>       0.00347222 </v>
   <v>       0.00347222 </v>
   <v>       0.00173611 </v>
   <v>       0.00347222 </v>
   <v>       0.00347222 </v>
   <v>       0.00347222 </v>
   <v>       0.00347222 </v>
   <v>       0.00347222 </v>
   <v>       0.00347222 </v>
   <v>       0.00173611 </v>
   <v>       0.00347222 </v>
   <v>       0.00347222 </v>
   <v>       0.00347222 </v>
   <v>       0.00347222 </v>
   <v>       0.00347222 </v>
   <v>       0.00173611 </v>
   <v>       0.00347222 </v>
   <v>       0.00347222 </v>
   <v>       0.00347222 </v>
   <v>       0.00347222 </v>
   <v>       0.00173611 </v>
   <v>       0.00347222 </v>
   <v>       0.00347222 </v>
   <v>       0.00347222 </v>
   <v>       0.00173611 </v>
   <v>       0.00347222 </v>
   <v>       0.00347222 </v>
   <v>       0.00173611 </v>
   <v>       0.00347222 </v>
   <v>       0.00173611 </v>
   <v>       0.00057870 </v>
   <v>       0.00173611 </v>
   <v>       0.00173611 </v>
   <v>       0.00173611 </v>
   <v>       0.00173611 </v>
   <v>       0.00173611 </v>
   <v>       0.00173611 </v>
   <v>       0.00173611 </v>
   <v>       0.00173611 </v>
   <v>       0.00173611 </v>
   <v>       0.00173611 </v>
   <v>       0.00347222 </v>
   <v>       0.00347222 </v>
   <v>       0.00347222 </v>
   <v>       0.00347222 </v>
   <v>       0.00347222 </v>
   <v>       0.00347222 </v>
   <v>       0.00347222 </v>
   <v>       0.00347222 </v>
   <v>       0.00173611 </v>
   <v>       0.00347222 </v>
   <v>       0.00347222 </v>
   <v>       0.00347222 </v>
   <v>       0.00347222 </v>
   <v>       0.00347222 </v>
   <v>       0.00347222 </v>
   <v>       0.00347222 </v>
   <v>       0.00173611 </v>
   <v>       0.00347222 </v>
   <v>       0.00347222 </v>
   <v>       0.00347222 </v>
   <v>       0.00347222 </v>
   <v>       0.00347222 </v>
   <v>       0.00347222 </v>
   <v>       0.00173611 </v>
   <v>       0.00347222 </v>
   <v>       0.00347222 </v>
   <v>       0.00347222 </v>
   <v>       0.00347222 </v>
   <v>       0.00347222 </v>
   <v>       0.00173611 </v>
   <v>       0.00347222 </v>
   <v>       0.00347222 </v>
   <v>       0.00347222 </v>
   <v>       0.00347222 </v>
   <v>       0.00173611 </v>
   <v>       0.00347222 </v>
   <v>       0.00347222 </v>
   <v>       0.00347222 </v>
   <v>       0.00173611 </v>
   <v>       0.00347222 </v>
   <v>       0.00347222 </v>
   <v>       0.00173611 </v>
   <v>       0.00347222 </v>
   <v>       0.00173611 </v>
   <v>       0.00057870 </v>
   <v>       0.00173611 </v>
   <v>       0.00173611 </v>
   <v>       0.00173611 </v>
   <v>       0.00173611 </v>
   <v>       0.00173611 </v>
   <v>       0.00173611 </v>
   <v>       0.00173611 </v>
   <v>       0.00173611 </v>
   <v>       0.00173611 </v>
   <v>       0.00347222 </v>
   <v>       0.00347222 </v>
   <v>       0.00347222 </v>
   <v>       0.00347222 </v>
   <v>       0.00347222 </v>
   <v>       0.00347222 </v>
   <v>       0.00347222 </v>
   <v>       0.00173611 </v>
   <v>       0.00347222 </v>
   <v>       0.00347222 </v>
   <v>       0.00347222 </v>
   <v>       0.00347222 </v>
   <v>       0.00347222 </v>
   <v>       0.00347222 </v>
   <v>       0.00173611 </v>
   <v>       0.00347222 </v>
   <v>       0.00347222 </v>
   <v>       0.00347222 </v>
   <v>       0.00347222 </v>
   <v>       0.00347222 </v>
   <v>       0.00173611 </v>
   <v>       0.00347222 </v>
   <v>       0.00347222 </v>
   <v>       0.00347222 </v>
   <v>       0.00347222 </v>
   <v>       0.00173611 </v>
   <v>       0.00347222 </v>
   <v>       0.00347222 </v>
   <v>       0.00347222 </v>
   <v>       0.00173611 </v>
   <v>       0.00347222 </v>
   <v>       0.00347222 </v>
   <v>       0.00173611 </v>
   <v>       0.00347222 </v>
   <v>       0.00173611 </v>
   <v>       0.00057870 </v>
   <v>       0.00173611 </v>
   <v>       0.00173611 </v>
   <v>       0.00173611 </v>
   <v>       0.00173611 </v>
   <v>       0.00173611 </v>
   <v>       0.00173611 </v>
   <v>       0.00173611 </v>
   <v>       0.00173611 </v>
   <v>       0.00347222 </v>
   <v>       0.00347222 </v>
   <v>       0.00347222 </v>
   <v>       0.00347222 </v>
   <v>       0.00347222 </v>
   <v>       0.00347222 </v>
   <v>       0.00173611 </v>
   <v>       0.00347222 </v>
   <v>       0.00347222 </v>
   <v>       0.00347222 </v>
   <v>       0.00347222 </v>
   <v>       0.00347222 </v>
   <v>       0.00173611 </v>
   <v>       0.00347222 </v>
   <v>       0.00347222 </v>
   <v>       0.00347222 </v>
   <v>       0.00347222 </v>
   <v>       0.00173611 </v>
   <v>       0.00347222 </v>
   <v>       0.00347222 </v>
   <v>       0.00347222 </v>
   <v>       0.00173611 </v>
   <v>       0.00347222 </v>
   <v>       0.00347222 </v>
   <v>       0.00173611 </v>
   <v>       0.00347222 </v>
   <v>       0.00173611 </v>
   <v>       0.00057870 </v>
   <v>       0.00173611 </v>
   <v>       0.00173611 </v>
   <v>       0.00173611 </v>
   <v>       0.00173611 </v>
   <v>       0.00173611 </v>
   <v>       0.00173611 </v>
   <v>       0.00173611 </v>
   <v>       0.00347222 </v>
   <v>       0.00347222 </v>
   <v>       0.00347222 </v>
   <v>       0.00347222 </v>
   <v>       0.00347222 </v>
   <v>       0.00173611 </v>
   <v>       0.00347222 </v>
   <v>       0.00347222 </v>
   <v>       0.00347222 </v>
   <v>       0.00347222 </v>
   <v>       0.00173611 </v>
   <v>       0.00347222 </v>
   <v>       0.00347222 </v>
   <v>       0.00347222 </v>
   <v>       0.00173611 </v>
   <v>       0.00347222 </v>
   <v>       0.00347222 </v>
   <v>       0.00173611 </v>
   <v>       0.00347222 </v>
   <v>       0.00173611 </v>
   <v>       0.00057870 </v>
   <v>       0.00173611 </v>
   <v>       0.00173611 </v>
   <v>       0.00173611 </v>
   <v>       0.00173611 </v>
   <v>       0.00173611 </v>
   <v>       0.00173611 </v>
   <v>       0.00347222 </v>
   <v>       0.00347222 </v>
   <v>       0.00347222 </v>
   <v>       0.00347222 </v>
   <v>       0.00173611 </v>
   <v>       0.00347222 </v>
   <v>       0.00347222 </v>
   <v>       0.00347222 </v>
   <v>       0.00173611 </v>
   <v>       0.00347222 </v>
   <v>       0.00347222 </v>
   <v>       0.00173611 </v>
   <v>       0.00347222 </v>
   <v>       0.00173611 </v>
   <v>       0.00057870 </v>
   <v>       0.00173611 </v>
   <v>       0.00173611 </v>
   <v>       0.00173611 </v>
   <v>       0.00173611 </v>
   <v>       0.00173611 </v>
   <v>       0.00347222 </v>
   <v>       0.00347222 </v>
   <v>       0.00347222 </v>
   <v>       0.00173611 </v>
   <v>       0.00347222 </v>
   <v>       0.00347222 </v>
   <v>       0.00173611 </v>
   <v>       0.00347222 </v>
   <v>       0.00173611 </v>
   <v>       0.00057870 </v>
   <v>       0.00173611 </v>
   <v>       0.00173611 </v>
   <v>       0.00173611 </v>
   <v>       0.00173611 </v>
   <v>       0.00347222 </v>
   <v>       0.00347222 </v>
   <v>       0.00173611 </v>
   <v>       0.00347222 </v>
   <v>       0.00173611 </v>
   <v>       0.00057870 </v>
   <v>       0.00173611 </v>
   <v>       0.00173611 </v>
   <v>       0.00173611 </v>
   <v>       0.00347222 </v>
   <v>       0.00173611 </v>
   <v>       0.00057870 </v>
   <v>       0.00173611 </v>
   <v>       0.00173611 </v>
   <v>       0.00057870 </v>
  </varray>
 </kpoints>
 <parameters>
  <separator name="general" >
   <i type="string" name="SYSTEM">Al fcc relaxation</i>
   <i type="logical" name="LCOMPAT"> F  </i>
  </separator>
  <separator name="electronic" >
   <i type="string" name="PREC">accura</i>
   <i name="ENMAX">    400.00000000</i>
   <i name="ENAUG">    291.05200000</i>
   <i name="EDIFF">      0.00000100</i>
   <i type="int" name="IALGO">    68</i>
   <i type="int" name="IWAVPR">    11</i>
   <i type="int" name="NBANDS">    14</i>
   <i type="int" name="NBANDSLOW">    -1</i>
   <i type="int" name="NBANDSHIGH">    -1</i>
   <i name="NELECT">     12.00000000</i>
   <i type="int" name="TURBO">     0</i>
   <i type="int" name="IRESTART">     0</i>
   <i type="int" name="NREBOOT">     0</i>
   <i type="int" name="NMIN">     0</i>
   <i name="EREF">      0.00000000</i>
   <separator name="electronic smearing" >
    <i type="int" name="ISMEAR">     1</i>
    <i name="SIGMA">      0.20000000</i>
    <i name="KSPACING">      0.08000000</i>
    <i type="logical" name="KGAMMA"> T  </i>
    <i type="logical" name="KBLOWUP"> T  </i>
   </separator>
   <separator name="electronic projectors" >
    <i type="logical" name="LREAL"> T  </i>
    <v name="ROPT">     -0.00025000</v>
    <i type="int" name="LMAXPAW">  -100</i>
    <i type="int" name="LMAXMIX">     2</i>
    <i type="logical" name="NLSPLINE"> F  </i>
   </separator>
   <separator name="electronic startup" >
    <i type="int" name="ISTART">     0</i>
    <i type="int" name="ICHARG">     2</i>
    <i type="int" name="INIWAV">     1</i>
   </separator>
   <separator name="electronic spin" >
    <i type="int" name="ISPIN">     1</i>
    <i type="logical" name="LNONCOLLINEAR"> F  </i>
    <v name="MAGMOM">      1.00000000      1.00000000      1.00000000      1.00000000</v>
    <i name="NUPDOWN">     -1.00000000</i>
    <i type="logical" name="LSORBIT"> F  </i>
    <v name="SAXIS">      0.00000000      0.00000000      1.00000000</v>
    <i type="logical" name="LSPIRAL"> F  </i>
    <v name="QSPIRAL">      0.00000000      0.00000000      0.00000000</v>
    <i type="logical" name="LZEROZ"> F  </i>
   </separator>
   <separator name="electronic exchange-correlation" >
    <i type="logical" name="LASPH"> F  </i>
    <i type="logical" name="LMETAGGA"> F  </i>
   </separator>
   <separator name="electronic convergence" >
    <i type="int" name="NELM">    60</i>
    <i type="int" name="NELMDL">    -5</i>
    <i type="int" name="NELMIN">     4</i>
    <i name="ENINI">    400.00000000</i>
    <separator name="electronic convergence detail" >
     <i type="logical" name="LDIAG"> T  </i>
     <i type="logical" name="LSUBROT"> F  </i>
     <i name="WEIMIN">      0.00100000</i>
     <i name="EBREAK">      0.00000002</i>
     <i name="DEPER">      0.30000000</i>
     <i type="int" name="NRMM">     4</i>
     <i name="TIME">      0.40000000</i>
    </separator>
   </separator>
   <separator name="electronic mixer" >
    <i name="AMIX">      0.40000000</i>
    <i name="BMIX">      1.00000000</i>
    <i name="AMIN">      0.10000000</i>
    <i name="AMIX_MAG">      1.60000000</i>
    <i name="BMIX_MAG">      1.00000000</i>
    <separator name="electronic mixer details" >
     <i type="int" name="IMIX">     4</i>
     <i type="logical" name="MIXFIRST"> F  </i>
     <i type="int" name="MAXMIX">   -45</i>
     <i name="WC">    100.00000000</i>
     <i type="int" name="INIMIX">     1</i>
     <i type="int" name="MIXPRE">     1</i>
     <i type="int" name="MREMOVE">     5</i>
    </separator>
   </separator>
   <separator name="electronic dipolcorrection" >
    <i type="logical" name="LDIPOL"> F  </i>
    <i type="logical" name="LMONO"> F  </i>
    <i type="int" name="IDIPOL">     0</i>
    <i name="EPSILON">      1.00000000</i>
    <v name="DIPOL">   -100.00000000   -100.00000000   -100.00000000</v>
    <i name="EFIELD">      0.00000000</i>
   </separator>
  </separator>
  <separator name="grids" >
   <i type="int" name="NGX">    24</i>
   <i type="int" name="NGY">    24</i>
   <i type="int" name="NGZ">    24</i>
   <i type="int" name="NGXF">    48</i>
   <i type="int" name="NGYF">    48</i>
   <i type="int" name="NGZF">    48</i>
   <i type="logical" name="ADDGRID"> F  </i>
  </separator>
  <separator name="ionic" >
   <i type="int" name="NSW">   100</i>
   <i type="int" name="IBRION">     2</i>
   <i type="int" name="MDALGO">     0</i>
   <i type="int" name="ISIF">     4</i>
   <i name="PSTRESS">      0.00000000</i>
   <i name="EDIFFG">      0.00001000</i>
   <i type="int" name="NFREE">     1</i>
   <i name="POTIM">      0.50000000</i>
   <i name="SMASS">     -3.00000000</i>
   <i name="SCALEE">      1.00000000</i>
  </separator>
  <separator name="ionic md" >
   <i name="TEBEG">      0.00010000</i>
   <i name="TEEND">      0.00010000</i>
   <i type="int" name="NBLOCK">     1</i>
   <i type="int" name="KBLOCK">   100</i>
   <i type="int" name="NPACO">   256</i>
   <i name="APACO">     10.00000000</i>
  </separator>
  <separator name="symmetry" >
   <i type="int" name="ISYM">     2</i>
   <i name="SYMPREC">      0.00001000</i>
  </separator>
  <separator name="dos" >
   <i type="int" name="LORBIT">     0</i>
   <v name="RWIGS">     -1.00000000</v>
   <i type="int" name="NEDOS">   301</i>
   <i name="EMIN">     10.00000000</i>
   <i name="EMAX">    -10.00000000</i>
   <i name="EFERMI">      0.00000000</i>
  </separator>
  <separator name="writing" >
   <i type="int" name="NWRITE">     2</i>
   <i type="logical" name="LWAVE"> F  </i>
   <i type="logical" name="LDOWNSAMPLE"> F  </i>
   <i type="logical" name="LCHARG"> F  </i>
   <i type="logical" name="LPARD"> F  </i>
   <i type="logical" name="LVTOT"> F  </i>
   <i type="logical" name="LVHAR"> F  </i>
   <i type="logical" name="LELF"> F  </i>
   <i type="logical" name="LOPTICS"> F  </i>
   <v name="STM">      0.00000000      0.00000000      0.00000000      0.00000000      0.00000000      0.00000000      0.00000000</v>
  </separator>
  <separator name="performance" >
   <i type="int" name="NPAR">    14</i>
   <i type="int" name="NSIM">     4</i>
   <i type="int" name="NBLK">    -1</i>
   <i type="logical" name="LPLANE"> T  </i>
   <i type="logical" name="LSCALAPACK"> T  </i>
   <i type="logical" name="LSCAAWARE"> F  </i>
   <i type="logical" name="LSCALU"> F  </i>
   <i type="logical" name="LASYNC"> F  </i>
   <i type="logical" name="LORBITALREAL"> F  </i>
  </separator>
  <separator name="miscellaneous" >
   <i type="int" name="IDIOT">     3</i>
   <i type="int" name="PHON_NSTRUCT">    -1</i>
   <i type="logical" name="LMUSIC"> F  </i>
   <v name="POMASS">     26.98100000</v>
   <v name="DARWINR">      0.00000000</v>
   <v name="DARWINV">      1.00000000</v>
   <i type="logical" name="LCORR"> T  </i>
  </separator>
  <i type="logical" name="GGA_COMPAT"> T  </i>
  <i type="logical" name="LBERRY"> F  </i>
  <i type="int" name="ICORELEVEL">     0</i>
  <i type="logical" name="LDAU"> F  </i>
  <i type="int" name="I_CONSTRAINED_M">     0</i>
  <separator name="electronic exchange-correlation" >
   <i type="string" name="GGA">--</i>
   <i type="int" name="VOSKOWN">     0</i>
   <i type="logical" name="LHFCALC"> F  </i>
   <i type="string" name="PRECFOCK"></i>
   <i type="logical" name="LSYMGRAD"> F  </i>
   <i type="logical" name="LHFONE"> F  </i>
   <i type="logical" name="LRHFCALC"> F  </i>
   <i type="logical" name="LTHOMAS"> F  </i>
   <i type="logical" name="LMODELHF"> F  </i>
   <i type="logical" name="LFOCKACE"> F  </i>
   <i name="ENCUT4O">     -1.00000000</i>
   <i type="int" name="EXXOEP">     0</i>
   <i type="int" name="FOURORBIT">     0</i>
   <i name="AEXX">      0.00000000</i>
   <i name="HFALPHA">      0.00000000</i>
   <i name="MCALPHA">      0.00000000</i>
   <i name="ALDAX">      1.00000000</i>
   <i name="AGGAX">      1.00000000</i>
   <i name="ALDAC">      1.00000000</i>
   <i name="AGGAC">      1.00000000</i>
   <i type="int" name="NKREDX">     1</i>
   <i type="int" name="NKREDY">     1</i>
   <i type="int" name="NKREDZ">     1</i>
   <i type="logical" name="SHIFTRED"> F  </i>
   <i type="logical" name="ODDONLY"> F  </i>
   <i type="logical" name="EVENONLY"> F  </i>
   <i type="int" name="LMAXFOCK">     0</i>
   <i type="int" name="NMAXFOCKAE">     0</i>
   <i type="logical" name="LFOCKAEDFT"> F  </i>
   <i name="HFSCREEN">      0.00000000</i>
   <i name="HFSCREENC">      0.00000000</i>
   <i type="int" name="NBANDSGWLOW">     0</i>
  </separator>
  <separator name="vdW DFT" >
   <i type="logical" name="LUSE_VDW"> F  </i>
   <i type="int" name="IVDW_NL">     1</i>
   <i type="logical" name="LSPIN_VDW"> F  </i>
   <i name="Zab_VDW">     -0.84910000</i>
   <i name="PARAM1">      0.12340000</i>
   <i name="PARAM2">      1.00000000</i>
   <i name="PARAM3">      0.00000000</i>
  </separator>
  <separator name="model GW" >
   <i type="int" name="MODEL_GW">     0</i>
   <i name="MODEL_EPS0">      5.92981835</i>
   <i name="MODEL_ALPHA">      1.00000000</i>
  </separator>
  <separator name="linear response parameters" >
   <i type="logical" name="LEPSILON"> F  </i>
   <i type="logical" name="LRPA"> F  </i>
   <i type="logical" name="LNABLA"> F  </i>
   <i type="logical" name="LVEL"> F  </i>
   <i name="CSHIFT">      0.10000000</i>
   <i name="OMEGAMAX">     -1.00000000</i>
   <i name="DEG_THRESHOLD">      0.00200000</i>
   <i name="RTIME">     -0.10000000</i>
   <i name="WPLASMAI">      0.00000000</i>
   <v name="DFIELD">      0.00000000      0.00000000      0.00000000</v>
   <v name="WPLASMA">      0.00000000      0.00000000      0.00000000      0.00000000      0.00000000      0.00000000      0.00000000      0.00000000      0.00000000</v>
  </separator>
  <separator name="orbital magnetization" >
   <i type="logical" name="NUCIND"> F  </i>
   <v name="MAGPOS">      0.00000000      0.00000000      0.00000000</v>
   <i type="logical" name="LNICSALL"> T  </i>
   <i type="logical" name="ORBITALMAG"> F  </i>
   <i type="logical" name="LMAGBLOCH"> F  </i>
   <i type="logical" name="LCHIMAG"> F  </i>
   <i type="logical" name="LGAUGE"> T  </i>
   <i type="int" name="MAGATOM">     0</i>
   <v name="MAGDIPOL">      0.00000000      0.00000000      0.00000000</v>
   <v name="AVECCONST">      0.00000000      0.00000000      0.00000000</v>
  </separator>
  <separator name="response functions" >
   <i type="logical" name="LALL_IN_ONE"> F  </i>
   <i type="int" name="IALL_IN_ONE">    -1</i>
   <i type="int" name="NBANDS_WAVE">    -1</i>
   <i type="logical" name="LFINITE_TEMPERATURE"> F  </i>
   <i type="logical" name="LADDER"> F  </i>
   <i type="logical" name="LRPAFORCE"> F  </i>
   <i type="logical" name="LFXC"> F  </i>
   <i type="logical" name="LHARTREE"> T  </i>
   <i type="int" name="IBSE">     0</i>
   <v type="int" name="KPOINT">    -1     0     0     0</v>
   <i type="logical" name="LTCTC"> F  </i>
   <i type="logical" name="LTCTE"> F  </i>
   <i type="logical" name="LTETE"> F  </i>
   <i type="logical" name="LTRIPLET"> F  </i>
   <i type="logical" name="LFXCEPS"> F  </i>
   <i type="logical" name="LFXHEG"> F  </i>
   <i type="int" name="NATURALO">     2</i>
   <i type="logical" name="LHOLEGF"> F  </i>
   <i type="logical" name="L2ORDER"> F  </i>
   <i type="logical" name="LDMP1"> F  </i>
   <i type="logical" name="LMP2LT"> F  </i>
   <i type="logical" name="LSMP2LT"> F  </i>
   <i type="logical" name="LGWLF"> F  </i>
   <i name="ENCUTGW">     -1.60000002</i>
   <i name="ENCUTGWSOFT">     -1.60000002</i>
   <i name="ENCUTLF">     -1.00000000</i>
   <i type="logical" name="LESF_SPLINES"> F  </i>
   <i type="int" name="LMAXMP2">    -1</i>
   <i name="SCISSOR">      0.00000000</i>
   <i type="int" name="NOMEGA">     0</i>
   <i type="int" name="NOMEGAR">     0</i>
   <i type="int" name="NBANDSGW">    -1</i>
   <i type="int" name="NBANDSO">    -1</i>
   <i type="int" name="NBANDSV">    -1</i>
   <i type="int" name="NELMGW">     1</i>
   <i type="int" name="NELMHF">     1</i>
   <i type="int" name="DIM">     3</i>
   <i type="int" name="IESPILON">     4</i>
   <i type="int" name="ANTIRES">     0</i>
   <i name="OMEGAMAX">    -30.00000000</i>
   <i name="OMEGAMIN">    -30.00000000</i>
   <i name="OMEGATL">   -200.00000000</i>
   <i type="int" name="OMEGAGRID">     0</i>
   <i name="CSHIFT">     -0.10000000</i>
   <i type="logical" name="LSELFENERGY"> F  </i>
   <i type="logical" name="LSPECTRAL"> F  </i>
   <i type="logical" name="LSPECTRALGW"> F  </i>
   <i type="logical" name="LSINGLES"> F  </i>
   <i type="logical" name="LFERMIGW"> F  </i>
   <i type="logical" name="ODDONLYGW"> F  </i>
   <i type="logical" name="EVENONLYGW"> F  </i>
   <i type="int" name="NKREDLFX">     1</i>
   <i type="int" name="NKREDLFY">     1</i>
   <i type="int" name="NKREDLFZ">     1</i>
   <i type="int" name="MAXMEM">  2800</i>
   <i type="int" name="TELESCOPE">     0</i>
   <i type="int" name="NTAUPAR">    -1</i>
   <i type="int" name="NOMEGAPAR">    -1</i>
   <i name="DAMP_NEWTON">      0.80000001</i>
   <i name="LAMBDA">      1.00000000</i>
  </separator>
  <separator name="External order field" >
   <i name="OFIELD_KAPPA">      0.00000000</i>
   <v name="OFIELD_K">      0.00000000      0.00000000      0.00000000</v>
   <i name="OFIELD_Q6_NEAR">      0.00000000</i>
   <i name="OFIELD_Q6_FAR">      0.00000000</i>
   <i name="OFIELD_A">      0.00000000</i>
  </separator>
  <separator name="optional k-points parameters" >
   <i type="int" name="KPOINTS_OPT_MODE">     1</i>
   <i type="logical" name="LKPOINTS_OPT"> F  </i>
  </separator>
 </parameters>
 <atominfo>
  <atoms>       4 </atoms>
  <types>       1 </types>
  <array name="atoms" >
   <dimension dim="1">ion</dimension>
   <field type="string">element</field>
   <field type="int">atomtype</field>
   <set>
    <rc><c>Al</c><c>   1</c></rc>
    <rc><c>Al</c><c>   1</c></rc>
    <rc><c>Al</c><c>   1</c></rc>
    <rc><c>Al</c><c>   1</c></rc>
   </set>
  </array>
  <array name="atomtypes" >
   <dimension dim="1">type</dimension>
   <field type="int">atomspertype</field>
   <field type="string">element</field>
   <field>mass</field>
   <field>valence</field>
   <field type="string">pseudopotential</field>
   <set>
    <rc><c>   4</c><c>Al</c><c>     26.98100000</c><c>      3.00000000</c><c>  PAW_PBE Al 04Jan2001                  </c></rc>
   </set>
  </array>
 </atominfo>
 <structure name="initialpos" >
  <crystal>
   <varray name="basis" >
    <v>       3.40656524       0.00000000       0.00000000 </v>
    <v>      -0.00000000       3.40656524       0.00000000 </v>
    <v>       0.00000000       0.00000000       3.40656524 </v>
   </varray>
   <i name="volume">     39.53212231 </i>
   <varray name="rec_basis" >
    <v>       0.29355081       0.00000000      -0.00000000 </v>
    <v>       0.00000000       0.29355081       0.00000000 </v>
    <v>      -0.00000000      -0.00000000       0.29355081 </v>
   </varray>
  </crystal>
  <varray name="positions" >
   <v>       0.00000000       0.00000000       0.00000000 </v>
   <v>       0.00000000       0.50000000       0.50000000 </v>
   <v>       0.50000000       0.00000000       0.50000000 </v>
   <v>       0.50000000       0.50000000       0.00000000 </v>
  </varray>
 </structure>
 <calculation>
  <scstep>
   <time name="dav">   15.73    7.88</time>
   <time name="total">   15.77    7.91</time>
   <energy>
    <i name="alphaZ">     -1.35942508 </i>
    <i name="ewald">   -348.84953473 </i>
    <i name="hartreedc">     -0.36581054 </i>
    <i name="XCdc">   -101.03971777 </i>
    <i name="pawpsdc">    264.80062850 </i>
    <i name="pawaedc">   -136.98248303 </i>
    <i name="eentropy">      0.00068605 </i>
    <i name="bandstr">    115.73856366 </i>
    <i name="atom">    214.15261729 </i>
    <i name="e_fr_energy">      6.09552436 </i>
    <i name="e_wo_entrp">      6.09483831 </i>
    <i name="e_0_energy">      6.09529568 </i>
   </energy>
  </scstep>
  <scstep>
   <time name="dav">   23.46   11.75</time>
   <time name="total">   23.47   11.75</time>
   <energy>
    <i name="e_fr_energy">     -8.83869316 </i>
    <i name="e_wo_entrp">     -8.83805749 </i>
    <i name="e_0_energy">     -8.83848127 </i>
   </energy>
  </scstep>
  <scstep>
   <time name="dav">   19.63    9.83</time>
   <time name="total">   19.64    9.83</time>
   <energy>
    <i name="e_fr_energy">     -8.90123706 </i>
    <i name="e_wo_entrp">     -8.90032807 </i>
    <i name="e_0_energy">     -8.90093407 </i>
   </energy>
  </scstep>
  <scstep>
   <time name="dav">   26.30   13.17</time>
   <time name="total">   26.31   13.17</time>
   <energy>
    <i name="e_fr_energy">     -8.90136157 </i>
    <i name="e_wo_entrp">     -8.90045229 </i>
    <i name="e_0_energy">     -8.90105848 </i>
   </energy>
  </scstep>
  <scstep>
   <time name="dav">   19.99   10.01</time>
   <time name="total">   20.51   10.27</time>
   <energy>
    <i name="e_fr_energy">     -8.90136162 </i>
    <i name="e_wo_entrp">     -8.90045233 </i>
    <i name="e_0_energy">     -8.90105852 </i>
   </energy>
  </scstep>
  <scstep>
   <time name="diag">    2.87    1.44</time>
   <time name="diis">    4.67    2.38</time>
   <time name="orth">    0.17    0.08</time>
   <time name="total">    8.27    4.18</time>
   <energy>
    <i name="e_fr_energy">     -8.72947926 </i>
    <i name="e_wo_entrp">     -8.72856140 </i>
    <i name="e_0_energy">     -8.72917330 </i>
   </energy>
  </scstep>
  <scstep>
   <time name="diag">    2.42    1.21</time>
   <time name="diis">    4.65    2.36</time>
   <time name="orth">    0.16    0.08</time>
   <time name="total">    7.80    3.94</time>
   <energy>
    <i name="e_fr_energy">     -8.62001879 </i>
    <i name="e_wo_entrp">     -8.61909777 </i>
    <i name="e_0_energy">     -8.61971178 </i>
   </energy>
  </scstep>
  <scstep>
   <time name="diag">    2.82    1.41</time>
   <time name="diis">    4.66    2.36</time>
   <time name="orth">    0.16    0.08</time>
   <time name="total">    8.24    4.15</time>
   <energy>
    <i name="e_fr_energy">     -8.62028123 </i>
    <i name="e_wo_entrp">     -8.61936152 </i>
    <i name="e_0_energy">     -8.61997466 </i>
   </energy>
  </scstep>
  <scstep>
   <time name="diag">    2.41    1.21</time>
   <time name="diis">    4.65    2.36</time>
   <time name="orth">    0.26    0.13</time>
   <time name="total">    7.88    3.98</time>
   <energy>
    <i name="e_fr_energy">     -8.61991981 </i>
    <i name="e_wo_entrp">     -8.61899631 </i>
    <i name="e_0_energy">     -8.61961198 </i>
   </energy>
  </scstep>
  <scstep>
   <time name="diag">    2.39    1.20</time>
   <time name="diis">    4.65    2.36</time>
   <time name="orth">    0.16    0.08</time>
   <time name="total">    7.75    3.92</time>
   <energy>
    <i name="e_fr_energy">     -8.61991061 </i>
    <i name="e_wo_entrp">     -8.61898637 </i>
    <i name="e_0_energy">     -8.61960253 </i>
   </energy>
  </scstep>
  <scstep>
   <time name="diag">    2.53    1.27</time>
   <time name="diis">    4.65    2.39</time>
   <time name="orth">    0.17    0.09</time>
   <time name="total">    7.91    4.03</time>
   <energy>
    <i name="e_fr_energy">     -8.61991253 </i>
    <i name="e_wo_entrp">     -8.61898844 </i>
    <i name="e_0_energy">     -8.61960450 </i>
   </energy>
  </scstep>
  <scstep>
   <time name="diag">    2.40    1.20</time>
   <time name="diis">    3.70    2.24</time>
   <time name="orth">    0.16    0.08</time>
   <time name="total">    6.82    3.80</time>
   <energy>
    <i name="e_fr_energy">     -8.61990765 </i>
    <i name="e_wo_entrp">     -8.61898293 </i>
    <i name="e_0_energy">     -8.61959941 </i>
   </energy>
  </scstep>
  <scstep>
   <time name="diag">    2.44    1.22</time>
   <time name="diis">    3.65    2.20</time>
   <time name="orth">    0.16    0.08</time>
   <time name="total">    6.81    3.79</time>
   <energy>
    <i name="e_fr_energy">     -8.61990611 </i>
    <i name="e_wo_entrp">     -8.61898111 </i>
    <i name="e_0_energy">     -8.61959778 </i>
   </energy>
  </scstep>
  <scstep>
   <time name="diag">    2.49    1.25</time>
   <time name="diis">    3.63    2.16</time>
   <time name="orth">    0.16    0.08</time>
   <time name="total">    6.84    3.77</time>
   <energy>
    <i name="e_fr_energy">     -8.61990410 </i>
    <i name="e_wo_entrp">     -8.61897874 </i>
    <i name="e_0_energy">     -8.61959565 </i>
   </energy>
  </scstep>
  <scstep>
   <time name="diag">    2.43    1.22</time>
   <time name="diis">    3.51    2.19</time>
   <time name="orth">    0.16    0.08</time>
   <time name="total">    6.15    3.51</time>
   <energy>
    <i name="alphaZ">     -1.35942508 </i>
    <i name="ewald">   -348.84953473 </i>
    <i name="hartreedc">     -1.26663780 </i>
    <i name="XCdc">   -100.07859862 </i>
    <i name="pawpsdc">   1605.96563490 </i>
    <i name="pawaedc">  -1478.90391364 </i>
    <i name="eentropy">     -0.00092553 </i>
    <i name="bandstr">    101.72087988 </i>
    <i name="atom">    214.15261729 </i>
    <i name="e_fr_energy">     -8.61990331 </i>
    <i name="e_wo_entrp">     -8.61897778 </i>
    <i name="e_0_energy">     -8.61959480 </i>
   </energy>
  </scstep>
  <structure>
   <crystal>
    <varray name="basis" >
     <v>       3.40656524       0.00000000       0.00000000 </v>
     <v>      -0.00000000       3.40656524       0.00000000 </v>
     <v>       0.00000000       0.00000000       3.40656524 </v>
    </varray>
    <i name="volume">     39.53212231 </i>
    <varray name="rec_basis" >
     <v>       0.29355081       0.00000000      -0.00000000 </v>
     <v>       0.00000000       0.29355081       0.00000000 </v>
     <v>      -0.00000000      -0.00000000       0.29355081 </v>
    </varray>
   </crystal>
   <varray name="positions" >
    <v>       0.00000000       0.00000000       0.00000000 </v>
    <v>       0.00000000       0.50000000       0.50000000 </v>
    <v>       0.50000000       0.00000000       0.50000000 </v>
    <v>       0.50000000       0.50000000       0.00000000 </v>
   </varray>
  </structure>
  <varray name="forces" >
   <v>       0.00000000      -0.00000000      -0.00000000 </v>
   <v>      -0.00000000      -0.00000000      -0.00000000 </v>
   <v>       0.00000000      -0.00000000       0.00000000 </v>
   <v>      -0.00000000       0.00000000      -0.00000000 </v>
  </varray>
  <varray name="stress" >
   <v>    1198.70814331      -0.00000000       0.00000000 </v>
   <v>      -0.00000000    1198.70814331       0.00000000 </v>
   <v>       0.00000000       0.00000000    1198.70814331 </v>
  </varray>
  <energy>
   <i name="e_fr_energy">     -8.61990331 </i>
   <i name="e_wo_entrp">     -8.61897778 </i>
   <i name="e_0_energy">     -8.61959480 </i>
  </energy>
  <time name="totalsc">  195.16   99.51</time>
  <eigenvalues>
   <array>
    <dimension dim="1">band</dimension>
    <dimension dim="2">kpoint</dimension>
    <dimension dim="3">spin</dimension>
    <field>eigene</field>
    <field>occ</field>
    <set>
     <set comment="spin 1">
      <set comment="kpoint 1">
       <r>   -0.5843    1.0000 </r>
       <r>   10.3390    1.0000 </r>
       <r>   10.3390    1.0000 </r>
       <r>   10.3390    1.0000 </r>
       <r>   12.4327    1.0000 </r>
       <r>   12.4327    1.0000 </r>
       <r>   12.4327    1.0000 </r>
       <r>   19.6648   -0.0000 </r>
       <r>   19.6648   -0.0000 </r>
       <r>   19.6648   -0.0000 </r>
       <r>   23.2440    0.0000 </r>
       <r>   23.2495    0.0000 </r>
       <r>   23.2633    0.0000 </r>
       <r>   23.3140    0.0000 </r>
      </set>
      <set comment="kpoint 2">
       <r>   -0.5402    1.0000 </r>
       <r>    9.7250    1.0000 </r>
       <r>   10.3755    1.0000 </r>
       <r>   10.3755    1.0000 </r>
       <r>   12.4644    1.0000 </r>
       <r>   12.4644    1.0000 </r>
       <r>   13.1104    1.0000 </r>
       <r>   19.2747   -0.0000 </r>
       <r>   19.2747   -0.0000 </r>
       <r>   19.7083   -0.0000 </r>
       <r>   23.0781    0.0000 </r>
       <r>   23.0781    0.0000 </r>
       <r>   23.2748    0.0000 </r>
       <r>   23.3460    0.0000 </r>
      </set>
      <set comment="kpoint 3">
       <r>   -0.4520    1.0000 </r>
       <r>    8.9516    1.0000 </r>
       <r>   10.4485    1.0000 </r>
       <r>   10.4485    1.0000 </r>
       <r>   12.5271    1.0000 </r>
       <r>   12.5271    1.0000 </r>
       <r>   14.0112    1.0178 </r>
       <r>   18.6799   -0.0000 </r>
       <r>   18.6799   -0.0000 </r>
       <r>   19.7954   -0.0000 </r>
       <r>   22.7427    0.0000 </r>
       <r>   22.7427    0.0000 </r>
       <r>   23.3362    0.0000 </r>
       <r>   23.4089    0.0000 </r>
      </set>
      <set comment="kpoint 4">
       <r>   -0.3200    1.0000 </r>
       <r>    8.1578    1.0000 </r>
       <r>   10.5579    1.0000 </r>
       <r>   10.5579    1.0000 </r>
       <r>   12.6186    1.0000 </r>
       <r>   12.6186    1.0000 </r>
       <r>   14.9963   -0.0000 </r>
       <r>   18.0128   -0.0000 </r>
       <r>   18.0128   -0.0000 </r>
       <r>   19.9259    0.0000 </r>
       <r>   22.3071    0.0000 </r>
       <r>   22.3071    0.0000 </r>
       <r>   23.4285    0.0000 </r>
       <r>   23.5039    0.0000 </r>
      </set>
      <set comment="kpoint 5">
       <r>   -0.1444    1.0000 </r>
       <r>    7.3773    1.0000 </r>
       <r>   10.7037    1.0000 </r>
       <r>   10.7037    1.0000 </r>
       <r>   12.7360    1.0000 </r>
       <r>   12.7360    1.0000 </r>
       <r>   16.0327   -0.0000 </r>
       <r>   17.3326   -0.0000 </r>
       <r>   17.3326   -0.0000 </r>
       <r>   20.1000    0.0000 </r>
       <r>   21.8183    0.0000 </r>
       <r>   21.8183    0.0000 </r>
       <r>   23.5518    0.0000 </r>
       <r>   23.6310    0.0000 </r>
      </set>
      <set comment="kpoint 6">
       <r>    0.0747    1.0000 </r>
       <r>    6.6213    1.0000 </r>
       <r>   10.8858    1.0000 </r>
       <r>   10.8858    1.0000 </r>
       <r>   12.8744    1.0000 </r>
       <r>   12.8744    1.0000 </r>
       <r>   16.6650   -0.0000 </r>
       <r>   16.6650   -0.0000 </r>
       <r>   17.1082   -0.0000 </r>
       <r>   20.3171    0.0000 </r>
       <r>   21.3126    0.0000 </r>
       <r>   21.3126    0.0000 </r>
       <r>   23.7059    0.0000 </r>
       <r>   23.7900    0.0000 </r>
      </set>
      <set comment="kpoint 7">
       <r>    0.3367    1.0000 </r>
       <r>    5.8951    1.0000 </r>
       <r>   11.1042    1.0000 </r>
       <r>   11.1042    1.0000 </r>
       <r>   13.0269    1.0000 </r>
       <r>   13.0269    1.0000 </r>
       <r>   16.0222   -0.0000 </r>
       <r>   16.0222   -0.0000 </r>
       <r>   18.2172   -0.0000 </r>
       <r>   20.5781    0.0000 </r>
       <r>   20.8178    0.0000 </r>
       <r>   20.8178    0.0000 </r>
       <r>   23.8913    0.0000 </r>
       <r>   23.9819    0.0000 </r>
      </set>
      <set comment="kpoint 8">
       <r>    0.6414    1.0000 </r>
       <r>    5.2017    1.0000 </r>
       <r>   11.3584    1.0000 </r>
       <r>   11.3584    1.0000 </r>
       <r>   13.1835    1.0000 </r>
       <r>   13.1835    1.0000 </r>
       <r>   15.4126   -0.0000 </r>
       <r>   15.4126   -0.0000 </r>
       <r>   19.3569   -0.0000 </r>
       <r>   20.3569    0.0000 </r>
       <r>   20.3569    0.0000 </r>
       <r>   20.8825    0.0000 </r>
       <r>   24.1084    0.0000 </r>
       <r>   24.2062    0.0000 </r>
      </set>
      <set comment="kpoint 9">
       <r>    0.9883    1.0000 </r>
       <r>    4.5427    1.0000 </r>
       <r>   11.6478    1.0000 </r>
       <r>   11.6478    1.0000 </r>
       <r>   13.3290    1.0000 </r>
       <r>   13.3290    1.0000 </r>
       <r>   14.8453   -0.0014 </r>
       <r>   14.8453   -0.0014 </r>
       <r>   19.9511    0.0000 </r>
       <r>   19.9511    0.0000 </r>
       <r>   20.5237    0.0000 </r>
       <r>   21.2310    0.0000 </r>
       <r>   24.3562    0.0000 </r>
       <r>   24.4642    0.0000 </r>
      </set>
      <set comment="kpoint 10">
       <r>    1.3767    1.0000 </r>
       <r>    3.9195    1.0000 </r>
       <r>   11.9712    1.0000 </r>
       <r>   11.9712    1.0000 </r>
       <r>   13.4336    1.0000 </r>
       <r>   13.4336    1.0000 </r>
       <r>   14.3388    0.5669 </r>
       <r>   14.3388    0.5669 </r>
       <r>   19.6205   -0.0000 </r>
       <r>   19.6205   -0.0000 </r>
       <r>   21.5919    0.0000 </r>
       <r>   21.7456    0.0000 </r>
       <r>   24.1705    0.0000 </r>
       <r>   24.6363    0.0000 </r>
      </set>
      <set comment="kpoint 11">
       <r>    1.8061    1.0000 </r>
       <r>    3.3333    1.0000 </r>
       <r>   12.3244    1.0000 </r>
       <r>   12.3244    1.0000 </r>
       <r>   13.4088    1.0000 </r>
       <r>   13.4088    1.0000 </r>
       <r>   13.9705    1.0102 </r>
       <r>   13.9705    1.0102 </r>
       <r>   19.3852   -0.0000 </r>
       <r>   19.3852   -0.0000 </r>
       <r>   22.0413    0.0000 </r>
       <r>   22.9416    0.0000 </r>
       <r>   23.5794    0.0000 </r>
       <r>   24.9454    0.0000 </r>
      </set>
      <set comment="kpoint 12">
       <r>    2.2758    1.0000 </r>
       <r>    2.7851    1.0000 </r>
       <r>   12.6870    1.0000 </r>
       <r>   12.6870    1.0000 </r>
       <r>   13.1462    1.0000 </r>
       <r>   13.1462    1.0000 </r>
       <r>   13.8552    1.0012 </r>
       <r>   13.8552    1.0012 </r>
       <r>   19.2625   -0.0000 </r>
       <r>   19.2625   -0.0000 </r>
       <r>   22.5142    0.0000 </r>
       <r>   23.0269    0.0000 </r>
       <r>   24.1621    0.0000 </r>
       <r>   25.2886    0.0000 </r>
      </set>
      <set comment="kpoint 13">
       <r>   -0.4961    1.0000 </r>
       <r>    9.7621    1.0000 </r>
       <r>    9.7621    1.0000 </r>
       <r>   10.4120    1.0000 </r>
       <r>   12.4948    1.0000 </r>
       <r>   13.1409    1.0000 </r>
       <r>   13.1409    1.0000 </r>
       <r>   18.9117   -0.0000 </r>
       <r>   19.3171   -0.0000 </r>
       <r>   19.3171   -0.0000 </r>
       <r>   23.1106    0.0000 </r>
       <r>   23.1108    0.0000 </r>
       <r>   23.3068    0.0000 </r>
       <r>   23.7990    0.0000 </r>
      </set>
      <set comment="kpoint 14">
       <r>   -0.4080    1.0000 </r>
       <r>    8.9895    1.0000 </r>
       <r>    9.8360    1.0000 </r>
       <r>   10.4849    1.0000 </r>
       <r>   12.5545    1.0000 </r>
       <r>   13.2010    1.0000 </r>
       <r>   14.0395    1.0242 </r>
       <r>   18.3469   -0.0000 </r>
       <r>   18.7212   -0.0000 </r>
       <r>   19.4019   -0.0000 </r>
       <r>   22.7784    0.0000 </r>
       <r>   23.0944    0.0000 </r>
       <r>   23.1758    0.0000 </r>
       <r>   23.8653    0.0000 </r>
      </set>
      <set comment="kpoint 15">
       <r>   -0.2761    1.0000 </r>
       <r>    8.1964    1.0000 </r>
       <r>    9.9468    1.0000 </r>
       <r>   10.5942    1.0000 </r>
       <r>   12.6406    1.0000 </r>
       <r>   13.2887    1.0000 </r>
       <r>   15.0214   -0.0000 </r>
       <r>   17.7064   -0.0000 </r>
       <r>   18.0536   -0.0000 </r>
       <r>   19.5292   -0.0000 </r>
       <r>   22.3470    0.0000 </r>
       <r>   22.6710    0.0000 </r>
       <r>   23.2736    0.0000 </r>
       <r>   23.9635    0.0000 </r>
      </set>
      <set comment="kpoint 16">
       <r>   -0.1005    1.0000 </r>
       <r>    7.4164    1.0000 </r>
       <r>   10.0940    1.0000 </r>
       <r>   10.7399    1.0000 </r>
       <r>   12.7487    1.0000 </r>
       <r>   13.4008    1.0000 </r>
       <r>   16.0533   -0.0000 </r>
       <r>   17.0523   -0.0000 </r>
       <r>   17.3731   -0.0000 </r>
       <r>   19.6988   -0.0000 </r>
       <r>   21.8635    0.0000 </r>
       <r>   22.1791    0.0000 </r>
       <r>   23.4044    0.0000 </r>
       <r>   24.0948    0.0000 </r>
      </set>
      <set comment="kpoint 17">
       <r>    0.1184    1.0000 </r>
       <r>    6.6611    1.0000 </r>
       <r>   10.2772    1.0000 </r>
       <r>   10.9218    1.0000 </r>
       <r>   12.8709    1.0000 </r>
       <r>   13.5323    1.0000 </r>
       <r>   16.4155   -0.0000 </r>
       <r>   16.7058   -0.0000 </r>
       <r>   17.1226   -0.0000 </r>
       <r>   19.9110    0.0000 </r>
       <r>   21.3645    0.0000 </r>
       <r>   21.6652    0.0000 </r>
       <r>   23.5686    0.0000 </r>
       <r>   24.2594    0.0000 </r>
      </set>
      <set comment="kpoint 18">
       <r>    0.3803    1.0000 </r>
       <r>    5.9354    1.0000 </r>
       <r>   10.4958    1.0000 </r>
       <r>   11.1397    1.0000 </r>
       <r>   12.9946    1.0000 </r>
       <r>   13.6757    1.0000 </r>
       <r>   15.8186   -0.0000 </r>
       <r>   16.0645   -0.0000 </r>
       <r>   18.2221   -0.0000 </r>
       <r>   20.1663    0.0000 </r>
       <r>   20.8785    0.0000 </r>
       <r>   21.1588    0.0000 </r>
       <r>   23.7669    0.0000 </r>
       <r>   24.4578    0.0000 </r>
      </set>
      <set comment="kpoint 19">
       <r>    0.6848    1.0000 </r>
       <r>    5.2424    1.0000 </r>
       <r>   10.7487    1.0000 </r>
       <r>   11.3929    1.0000 </r>
       <r>   13.0963    1.0000 </r>
       <r>   13.8193    1.0005 </r>
       <r>   15.2838   -0.0000 </r>
       <r>   15.4586   -0.0000 </r>
       <r>   19.3455   -0.0000 </r>
       <r>   20.4296    0.0000 </r>
       <r>   20.4673    0.0000 </r>
       <r>   20.6823    0.0000 </r>
       <r>   24.0005    0.0000 </r>
       <r>   24.6904    0.0000 </r>
      </set>
      <set comment="kpoint 20">
       <r>    1.0315    1.0000 </r>
       <r>    4.5838    1.0000 </r>
       <r>   11.0342    1.0000 </r>
       <r>   11.6801    1.0000 </r>
       <r>   13.1348    1.0000 </r>
       <r>   13.9393    1.0062 </r>
       <r>   14.8475   -0.0014 </r>
       <r>   14.9049   -0.0004 </r>
       <r>   20.0398    0.0000 </r>
       <r>   20.2555    0.0000 </r>
       <r>   20.4615    0.0000 </r>
       <r>   20.8401    0.0000 </r>
       <r>   24.2390    0.0000 </r>
       <r>   24.2714    0.0000 </r>
      </set>
      <set comment="kpoint 21">
       <r>    1.4197    1.0000 </r>
       <r>    3.9611    1.0000 </r>
       <r>   11.3496    1.0000 </r>
       <r>   11.9964    1.0000 </r>
       <r>   13.0544    1.0000 </r>
       <r>   13.9533    1.0078 </r>
       <r>   14.4757    0.0777 </r>
       <r>   14.5602   -0.0278 </r>
       <r>   19.7309   -0.0000 </r>
       <r>   19.8985    0.0000 </r>
       <r>   21.1325    0.0000 </r>
       <r>   21.7146    0.0000 </r>
       <r>   23.6322    0.0000 </r>
       <r>   24.5846    0.0000 </r>
      </set>
      <set comment="kpoint 22">
       <r>    1.8488    1.0000 </r>
       <r>    3.3752    1.0000 </r>
       <r>   11.6893    1.0000 </r>
       <r>   12.3135    1.0000 </r>
       <r>   12.8593    1.0000 </r>
       <r>   13.6670    1.0000 </r>
       <r>   14.3545    0.5007 </r>
       <r>   14.4307    0.2027 </r>
       <r>   19.5237   -0.0000 </r>
       <r>   19.6311   -0.0000 </r>
       <r>   21.5669    0.0000 </r>
       <r>   22.8640    0.0000 </r>
       <r>   23.0603    0.0000 </r>
       <r>   24.9518    0.0000 </r>
      </set>
      <set comment="kpoint 23">
       <r>    2.3183    1.0000 </r>
       <r>    2.8274    1.0000 </r>
       <r>   12.0404    1.0000 </r>
       <r>   12.3530    1.0000 </r>
       <r>   12.8807    1.0000 </r>
       <r>   13.2508    1.0000 </r>
       <r>   14.3702    0.4348 </r>
       <r>   14.3906    0.3507 </r>
       <r>   19.4350   -0.0000 </r>
       <r>   19.4721   -0.0000 </r>
       <r>   22.0279    0.0000 </r>
       <r>   22.5254    0.0000 </r>
       <r>   23.9796    0.0000 </r>
       <r>   24.9304    0.0000 </r>
      </set>
      <set comment="kpoint 24">
       <r>   -0.3200    1.0000 </r>
       <r>    9.0649    1.0000 </r>
       <r>    9.0649    1.0000 </r>
       <r>   10.5577    1.0000 </r>
       <r>   12.6074    1.0000 </r>
       <r>   14.0949    1.0347 </r>
       <r>   14.0949    1.0347 </r>
       <r>   17.8191   -0.0000 </r>
       <r>   18.8040   -0.0000 </r>
       <r>   18.8040   -0.0000 </r>
       <r>   22.8499    0.0000 </r>
       <r>   22.8499    0.0000 </r>
       <r>   23.4320    0.0000 </r>
       <r>   24.4217    0.0000 </r>
      </set>
      <set comment="kpoint 25">
       <r>   -0.1883    1.0000 </r>
       <r>    8.2733    1.0000 </r>
       <r>    9.1779    1.0000 </r>
       <r>   10.6669    1.0000 </r>
       <r>   12.6813    1.0000 </r>
       <r>   14.1751    1.0111 </r>
       <r>   15.0703   -0.0000 </r>
       <r>   17.2158   -0.0000 </r>
       <r>   18.1352   -0.0000 </r>
       <r>   18.9282   -0.0000 </r>
       <r>   22.4272    0.0000 </r>
       <r>   22.9576    0.0000 </r>
       <r>   23.2293    0.0000 </r>
       <r>   24.7319    0.0000 </r>
      </set>
      <set comment="kpoint 26">
       <r>   -0.0129    1.0000 </r>
       <r>    7.4947    1.0000 </r>
       <r>    9.3279    1.0000 </r>
       <r>   10.8122    1.0000 </r>
       <r>   12.7679    1.0000 </r>
       <r>   14.2761    0.8059 </r>
       <r>   16.0924   -0.0000 </r>
       <r>   16.6032   -0.0000 </r>
       <r>   17.4544   -0.0000 </r>
       <r>   19.0943   -0.0000 </r>
       <r>   21.9546    0.0000 </r>
       <r>   22.7782    0.0000 </r>
       <r>   23.1023    0.0000 </r>
       <r>   24.8658    0.0000 </r>
      </set>
      <set comment="kpoint 27">
       <r>    0.2058    1.0000 </r>
       <r>    6.7406    1.0000 </r>
       <r>    9.5145    1.0000 </r>
       <r>   10.9936    1.0000 </r>
       <r>   12.8529    1.0000 </r>
       <r>   14.3917    0.3464 </r>
       <r>   16.0242   -0.0000 </r>
       <r>   16.7877   -0.0000 </r>
       <r>   17.1479   -0.0000 </r>
       <r>   19.3030   -0.0000 </r>
       <r>   21.4697    0.0000 </r>
       <r>   22.2687    0.0000 </r>
       <r>   23.2853    0.0000 </r>
       <r>   25.0357    0.0000 </r>
      </set>
      <set comment="kpoint 28">
       <r>    0.4674    1.0000 </r>
       <r>    6.0160    1.0000 </r>
       <r>    9.7370    1.0000 </r>
       <r>   11.2102    1.0000 </r>
       <r>   12.9104    1.0000 </r>
       <r>   14.5107    0.0152 </r>
       <r>   15.5147   -0.0000 </r>
       <r>   16.1508   -0.0000 </r>
       <r>   18.2254   -0.0000 </r>
       <r>   19.5569   -0.0000 </r>
       <r>   21.0023    0.0000 </r>
       <r>   21.7535    0.0000 </r>
       <r>   23.5086    0.0000 </r>
       <r>   24.8037    0.0000 </r>
      </set>
      <set comment="kpoint 29">
       <r>    0.7716    1.0000 </r>
       <r>    5.3238    1.0000 </r>
       <r>    9.9942    1.0000 </r>
       <r>   11.4606    1.0000 </r>
       <r>   12.8990    1.0000 </r>
       <r>   14.6108   -0.0350 </r>
       <r>   15.1201   -0.0000 </r>
       <r>   15.5605   -0.0000 </r>
       <r>   19.2984   -0.0000 </r>
       <r>   19.8761    0.0000 </r>
       <r>   20.5783    0.0000 </r>
       <r>   21.2595    0.0000 </r>
       <r>   23.7763    0.0000 </r>
       <r>   24.1423    0.0000 </r>
      </set>
      <set comment="kpoint 30">
       <r>    1.1179    1.0000 </r>
       <r>    4.6660    1.0000 </r>
       <r>   10.2847    1.0000 </r>
       <r>   11.7392    1.0000 </r>
       <r>   12.7769    1.0000 </r>
       <r>   14.6035   -0.0354 </r>
       <r>   14.8835   -0.0006 </r>
       <r>   15.0969   -0.0000 </r>
       <r>   20.0737    0.0000 </r>
       <r>   20.2223    0.0000 </r>
       <r>   20.5437    0.0000 </r>
       <r>   20.8067    0.0000 </r>
       <r>   23.5134    0.0000 </r>
       <r>   24.0961    0.0000 </r>
      </set>
      <set comment="kpoint 31">
       <r>    1.5056    1.0000 </r>
       <r>    4.0440    1.0000 </r>
       <r>   10.6061    1.0000 </r>
       <r>   12.0139    1.0000 </r>
       <r>   12.5676    1.0000 </r>
       <r>   14.2664    0.8362 </r>
       <r>   14.8048   -0.0033 </r>
       <r>   14.9692   -0.0001 </r>
       <r>   19.9580    0.0000 </r>
       <r>   20.4131    0.0000 </r>
       <r>   20.4866    0.0000 </r>
       <r>   21.6062    0.0000 </r>
       <r>   22.9186    0.0000 </r>
       <r>   24.4833    0.0000 </r>
      </set>
      <set comment="kpoint 32">
       <r>    1.9343    1.0000 </r>
       <r>    3.4590    1.0000 </r>
       <r>   10.9544    1.0000 </r>
       <r>   12.0199    1.0000 </r>
       <r>   12.5782    1.0000 </r>
       <r>   13.7971    1.0003 </r>
       <r>   14.8290   -0.0020 </r>
       <r>   14.9677   -0.0001 </r>
       <r>   19.8063   -0.0000 </r>
       <r>   20.0981    0.0000 </r>
       <r>   20.9029    0.0000 </r>
       <r>   22.3594    0.0000 </r>
       <r>   22.6632    0.0000 </r>
       <r>   24.9702    0.0000 </r>
      </set>
      <set comment="kpoint 33">
       <r>    2.4032    1.0000 </r>
       <r>    2.9117    1.0000 </r>
       <r>   11.3228    1.0000 </r>
       <r>   11.6958    1.0000 </r>
       <r>   12.9192    1.0000 </r>
       <r>   13.3391    1.0000 </r>
       <r>   14.8915   -0.0005 </r>
       <r>   14.9455   -0.0001 </r>
       <r>   19.7806   -0.0000 </r>
       <r>   19.8814    0.0000 </r>
       <r>   21.3517    0.0000 </r>
       <r>   21.8371    0.0000 </r>
       <r>   23.6223    0.0000 </r>
       <r>   24.4220    0.0000 </r>
      </set>
      <set comment="kpoint 34">
       <r>   -0.0567    1.0000 </r>
       <r>    8.3885    1.0000 </r>
       <r>    8.3885    1.0000 </r>
       <r>   10.7757    1.0000 </r>
       <r>   12.7324    1.0000 </r>
       <r>   15.1394   -0.0000 </r>
       <r>   15.1394   -0.0000 </r>
       <r>   16.6559   -0.0000 </r>
       <r>   18.2580   -0.0000 </r>
       <r>   18.2580   -0.0000 </r>
       <r>   22.5485    0.0000 </r>
       <r>   22.5485    0.0000 </r>
       <r>   23.6206    0.0000 </r>
       <r>   25.0167    0.0000 </r>
      </set>
      <set comment="kpoint 35">
       <r>    0.1184    1.0000 </r>
       <r>    7.6118    1.0000 </r>
       <r>    8.5414    1.0000 </r>
       <r>   10.9205    1.0000 </r>
       <r>   12.7793    1.0000 </r>
       <r>   15.2232   -0.0000 </r>
       <r>   16.1027   -0.0000 </r>
       <r>   16.1453   -0.0000 </r>
       <r>   17.5774   -0.0000 </r>
       <r>   18.4227   -0.0000 </r>
       <r>   22.0935    0.0000 </r>
       <r>   22.7126    0.0000 </r>
       <r>   23.4478    0.0000 </r>
       <r>   25.4503    0.0000 </r>
      </set>
      <set comment="kpoint 36">
       <r>    0.3367    1.0000 </r>
       <r>    6.8595    1.0000 </r>
       <r>    8.7317    1.0000 </r>
       <r>   11.1004    1.0000 </r>
       <r>   12.7953    1.0000 </r>
       <r>   15.3117   -0.0000 </r>
       <r>   15.6110   -0.0000 </r>
       <r>   16.9144   -0.0000 </r>
       <r>   17.1756   -0.0000 </r>
       <r>   18.6327   -0.0000 </r>
       <r>   21.6313    0.0000 </r>
       <r>   22.9224    0.0000 </r>
       <r>   23.0050    0.0000 </r>
       <r>   24.7315    0.0000 </r>
      </set>
      <set comment="kpoint 37">
       <r>    0.5979    1.0000 </r>
       <r>    6.1365    1.0000 </r>
       <r>    8.9588    1.0000 </r>
       <r>   11.3139    1.0000 </r>
       <r>   12.7401    1.0000 </r>
       <r>   15.2353   -0.0000 </r>
       <r>   15.3828   -0.0000 </r>
       <r>   16.2934   -0.0000 </r>
       <r>   18.2029   -0.0000 </r>
       <r>   18.9044   -0.0000 </r>
       <r>   21.1942    0.0000 </r>
       <r>   22.5036    0.0000 </r>
       <r>   23.1828    0.0000 </r>
       <r>   24.0426    0.0000 </r>
      </set>
      <set comment="kpoint 38">
       <r>    0.9015    1.0000 </r>
       <r>    5.4457    1.0000 </r>
       <r>    9.2215    1.0000 </r>
       <r>   11.5551    1.0000 </r>
       <r>   12.5785    1.0000 </r>
       <r>   15.0211   -0.0000 </r>
       <r>   15.3371   -0.0000 </r>
       <r>   15.8059   -0.0000 </r>
       <r>   19.0109   -0.0000 </r>
       <r>   19.4423   -0.0000 </r>
       <r>   20.8109    0.0000 </r>
       <r>   22.0035    0.0000 </r>
       <r>   23.3855    0.0000 </r>
       <r>   23.5021    0.0000 </r>
      </set>
      <set comment="kpoint 39">
       <r>    1.2472    1.0000 </r>
       <r>    4.7892    1.0000 </r>
       <r>    9.5188    1.0000 </r>
       <r>   11.7889    1.0000 </r>
[...]
       <r>    5.9460    1.0000 </r>
       <r>    7.2987    1.0000 </r>
       <r>    7.2987    1.0000 </r>
       <r>    7.9215    1.0000 </r>
       <r>    9.5729    1.0000 </r>
       <r>   10.1864    1.0000 </r>
       <r>   10.1864    1.0000 </r>
       <r>   11.5025    1.0000 </r>
       <r>   26.0314    0.0000 </r>
       <r>   26.5578    0.0000 </r>
       <r>   26.5578    0.0000 </r>
       <r>   27.8030    0.0000 </r>
       <r>   27.8031    0.0000 </r>
       <r>   27.8432    0.0000 </r>
      </set>
      <set comment="kpoint 359">
       <r>    6.3751    1.0000 </r>
       <r>    6.8302    1.0000 </r>
       <r>    7.6350    1.0000 </r>
       <r>    7.8833    1.0000 </r>
       <r>    9.5328    1.0000 </r>
       <r>    9.7780    1.0000 </r>
       <r>   10.5674    1.0000 </r>
       <r>   11.0102    1.0000 </r>
       <r>   26.3518    0.0000 </r>
       <r>   26.5407    0.0000 </r>
       <r>   27.3669    0.0000 </r>
       <r>   27.9189    0.0000 </r>
       <r>   27.9592    0.0000 </r>
       <r>   27.9975    0.0000 </r>
      </set>
      <set comment="kpoint 360">
       <r>    6.7905    1.0000 </r>
       <r>    7.2203    1.0000 </r>
       <r>    7.2203    1.0000 </r>
       <r>    7.5963    1.0000 </r>
       <r>    9.7383    1.0000 </r>
       <r>   10.1081    1.0000 </r>
       <r>   10.1081    1.0000 </r>
       <r>   10.5286    1.0000 </r>
       <r>   26.8075    0.0000 </r>
       <r>   27.1444    0.0000 </r>
       <r>   27.1444    0.0000 </r>
       <r>   27.5817    0.0000 </r>
       <r>   28.3899    0.0000 </r>
       <r>   28.4114    0.0000 </r>
      </set>
      <set comment="kpoint 361">
       <r>    6.3351    1.0000 </r>
       <r>    7.5964    1.0000 </r>
       <r>    7.5964    1.0000 </r>
       <r>    7.5964    1.0000 </r>
       <r>    9.7384    1.0000 </r>
       <r>    9.7384    1.0000 </r>
       <r>    9.7384    1.0000 </r>
       <r>   10.9719    1.0000 </r>
       <r>   27.0409    0.0000 </r>
       <r>   27.0409    0.0000 </r>
       <r>   27.0410    0.0000 </r>
       <r>   28.0580    0.0000 </r>
       <r>   28.0599    0.0000 </r>
       <r>   28.0785    0.0000 </r>
      </set>
      <set comment="kpoint 362">
       <r>    6.7509    1.0000 </r>
       <r>    7.1812    1.0000 </r>
       <r>    7.8071    1.0000 </r>
       <r>    7.8071    1.0000 </r>
       <r>    9.4523    1.0000 </r>
       <r>    9.4523    1.0000 </r>
       <r>   10.0689    1.0000 </r>
       <r>   10.4899    1.0000 </r>
       <r>   27.2672    0.0000 </r>
       <r>   27.2672    0.0000 </r>
       <r>   27.9306    0.0000 </r>
       <r>   28.2234    0.0000 </r>
       <r>   28.2242    0.0000 </r>
       <r>   28.2792    0.0000 </r>
      </set>
      <set comment="kpoint 363">
       <r>    7.1420    1.0000 </r>
       <r>    7.5191    1.0000 </r>
       <r>    7.5191    1.0000 </r>
       <r>    7.7690    1.0000 </r>
       <r>    9.4120    1.0000 </r>
       <r>    9.6587    1.0000 </r>
       <r>    9.6587    1.0000 </r>
       <r>   10.0296    1.0000 </r>
       <r>   27.7277    0.0000 </r>
       <r>   27.9553    0.0000 </r>
       <r>   27.9565    0.0000 </r>
       <r>   28.3290    0.0000 </r>
       <r>   28.4695    0.0000 </r>
       <r>   28.4965    0.0000 </r>
      </set>
      <set comment="kpoint 364">
       <r>    7.4805    1.0000 </r>
       <r>    7.7309    1.0000 </r>
       <r>    7.7309    1.0000 </r>
       <r>    7.7309    1.0000 </r>
       <r>    9.3715    1.0000 </r>
       <r>    9.3715    1.0000 </r>
       <r>    9.3715    1.0000 </r>
       <r>    9.6188    1.0000 </r>
       <r>   28.4207    0.0000 </r>
       <r>   28.4213    0.0000 </r>
       <r>   28.4228    0.0000 </r>
       <r>   28.5791    0.0000 </r>
       <r>   28.5892    0.0000 </r>
       <r>   28.6318    0.0000 </r>
      </set>
     </set>
    </set>
   </array>
  </eigenvalues>
  <separator name="orbital magnetization" >
   <v name="MAGDIPOLOUT">      0.00000000      0.00000000      0.00000000</v>
  </separator>
  <dos>
   <i name="efermi">     14.35469199 </i>
   <total>
    <array>
     <dimension dim="1">gridpoints</dimension>
     <dimension dim="2">spin</dimension>
     <field>energy</field>
     <field>total</field>
     <field>integrated</field>
     <set>
      <set comment="spin 1">
       <r>    -2.5843     0.0000     0.0000 </r>
       <r>    -2.4735     0.0000     0.0000 </r>
       <r>    -2.3628     0.0000     0.0000 </r>
       <r>    -2.2521    -0.0000    -0.0000 </r>
       <r>    -2.1414    -0.0000    -0.0000 </r>
       <r>    -2.0306    -0.0000    -0.0000 </r>
       <r>    -1.9199    -0.0000    -0.0000 </r>
       <r>    -1.8092    -0.0000    -0.0000 </r>
       <r>    -1.6985    -0.0000    -0.0000 </r>
       <r>    -1.5878    -0.0000    -0.0000 </r>
       <r>    -1.4770    -0.0000    -0.0000 </r>
       <r>    -1.3663    -0.0000    -0.0000 </r>
       <r>    -1.2556    -0.0000    -0.0000 </r>
       <r>    -1.1449    -0.0000    -0.0000 </r>
       <r>    -1.0342    -0.0001    -0.0000 </r>
       <r>    -0.9234    -0.0007    -0.0001 </r>
       <r>    -0.8127    -0.0026    -0.0004 </r>
       <r>    -0.7020    -0.0015    -0.0005 </r>
       <r>    -0.5913     0.0174     0.0014 </r>
       <r>    -0.4806     0.0612     0.0082 </r>
       <r>    -0.3698     0.1110     0.0205 </r>
       <r>    -0.2591     0.1489     0.0369 </r>
       <r>    -0.1484     0.1765     0.0565 </r>
       <r>    -0.0377     0.1993     0.0785 </r>
       <r>     0.0730     0.2205     0.1030 </r>
       <r>     0.1838     0.2399     0.1295 </r>
       <r>     0.2945     0.2565     0.1579 </r>
       <r>     0.4052     0.2762     0.1885 </r>
       <r>     0.5159     0.2902     0.2206 </r>
       <r>     0.6266     0.3033     0.2542 </r>
       <r>     0.7374     0.3249     0.2902 </r>
       <r>     0.8481     0.3345     0.3272 </r>
       <r>     0.9588     0.3417     0.3651 </r>
       <r>     1.0695     0.3680     0.4058 </r>
       <r>     1.1802     0.3783     0.4477 </r>
       <r>     1.2910     0.3781     0.4895 </r>
       <r>     1.4017     0.3976     0.5336 </r>
       <r>     1.5124     0.4206     0.5801 </r>
       <r>     1.6231     0.4264     0.6273 </r>
       <r>     1.7338     0.4198     0.6738 </r>
       <r>     1.8446     0.4404     0.7226 </r>
       <r>     1.9553     0.4780     0.7755 </r>
       <r>     2.0660     0.4687     0.8274 </r>
       <r>     2.1767     0.4551     0.8778 </r>
       <r>     2.2874     0.4886     0.9319 </r>
       <r>     2.3982     0.5137     0.9888 </r>
       <r>     2.5089     0.5154     1.0458 </r>
       <r>     2.6196     0.5138     1.1027 </r>
       <r>     2.7303     0.5121     1.1594 </r>
       <r>     2.8410     0.5323     1.2184 </r>
       <r>     2.9518     0.5717     1.2816 </r>
       <r>     3.0625     0.5787     1.3457 </r>
       <r>     3.1732     0.5453     1.4061 </r>
       <r>     3.2839     0.5425     1.4662 </r>
       <r>     3.3946     0.6021     1.5328 </r>
       <r>     3.5054     0.6333     1.6029 </r>
       <r>     3.6161     0.5993     1.6693 </r>
       <r>     3.7268     0.5933     1.7350 </r>
       <r>     3.8375     0.6183     1.8034 </r>
       <r>     3.9482     0.6262     1.8728 </r>
       <r>     4.0590     0.6451     1.9442 </r>
       <r>     4.1697     0.6763     2.0191 </r>
       <r>     4.2804     0.6777     2.0941 </r>
       <r>     4.3911     0.6383     2.1648 </r>
       <r>     4.5018     0.6323     2.2348 </r>
       <r>     4.6126     0.6981     2.3121 </r>
       <r>     4.7233     0.7392     2.3939 </r>
       <r>     4.8340     0.7284     2.4746 </r>
       <r>     4.9447     0.6884     2.5508 </r>
       <r>     5.0554     0.6730     2.6253 </r>
       <r>     5.1662     0.7302     2.7062 </r>
       <r>     5.2769     0.7673     2.7911 </r>
       <r>     5.3876     0.7552     2.8747 </r>
       <r>     5.4983     0.7563     2.9585 </r>
       <r>     5.6090     0.7743     3.0442 </r>
       <r>     5.7198     0.7783     3.1304 </r>
       <r>     5.8305     0.7412     3.2124 </r>
       <r>     5.9412     0.7505     3.2955 </r>
       <r>     6.0519     0.8414     3.3887 </r>
       <r>     6.1626     0.8751     3.4856 </r>
       <r>     6.2734     0.8242     3.5769 </r>
       <r>     6.3841     0.7857     3.6638 </r>
       <r>     6.4948     0.7891     3.7512 </r>
       <r>     6.6055     0.8366     3.8438 </r>
       <r>     6.7162     0.9004     3.9435 </r>
       <r>     6.8270     0.9134     4.0447 </r>
       <r>     6.9377     0.8703     4.1410 </r>
       <r>     7.0484     0.8653     4.2368 </r>
       <r>     7.1591     0.9088     4.3375 </r>
       <r>     7.2698     0.9071     4.4379 </r>
       <r>     7.3806     0.9045     4.5380 </r>
       <r>     7.4913     0.9430     4.6424 </r>
       <r>     7.6020     0.9893     4.7520 </r>
       <r>     7.7127     1.0606     4.8694 </r>
       <r>     7.8234     1.0842     4.9894 </r>
       <r>     7.9342     1.0050     5.1007 </r>
       <r>     8.0449     0.9587     5.2069 </r>
       <r>     8.1556     1.0040     5.3180 </r>
       <r>     8.2663     1.0556     5.4349 </r>
       <r>     8.3770     1.0456     5.5507 </r>
       <r>     8.4878     0.9892     5.6602 </r>
       <r>     8.5985     0.9151     5.7615 </r>
       <r>     8.7092     0.8733     5.8582 </r>
       <r>     8.8199     0.9091     5.9589 </r>
       <r>     8.9306     0.9344     6.0623 </r>
       <r>     9.0414     0.8849     6.1603 </r>
       <r>     9.1521     0.8255     6.2517 </r>
       <r>     9.2628     0.8552     6.3464 </r>
       <r>     9.3735     0.9306     6.4494 </r>
       <r>     9.4842     0.9242     6.5518 </r>
       <r>     9.5950     0.8563     6.6466 </r>
       <r>     9.7057     0.8501     6.7407 </r>
       <r>     9.8164     0.9736     6.8485 </r>
       <r>     9.9271     1.1086     6.9712 </r>
       <r>    10.0378     1.0536     7.0879 </r>
       <r>    10.1486     0.9280     7.1906 </r>
       <r>    10.2593     0.9686     7.2979 </r>
       <r>    10.3700     1.0936     7.4190 </r>
       <r>    10.4807     1.1329     7.5444 </r>
       <r>    10.5914     1.1345     7.6700 </r>
       <r>    10.7022     1.1074     7.7926 </r>
       <r>    10.8129     1.0323     7.9069 </r>
       <r>    10.9236     1.0595     8.0242 </r>
       <r>    11.0343     1.1604     8.1527 </r>
       <r>    11.1450     1.1082     8.2754 </r>
       <r>    11.2558     0.9874     8.3848 </r>
       <r>    11.3665     0.9942     8.4948 </r>
       <r>    11.4772     1.0399     8.6100 </r>
       <r>    11.5879     1.0380     8.7249 </r>
       <r>    11.6986     1.0393     8.8400 </r>
       <r>    11.8094     0.9857     8.9491 </r>
       <r>    11.9201     0.9603     9.0554 </r>
       <r>    12.0308     1.0923     9.1764 </r>
       <r>    12.1415     1.1777     9.3068 </r>
       <r>    12.2522     1.1703     9.4363 </r>
       <r>    12.3630     1.2193     9.5713 </r>
       <r>    12.4737     1.2665     9.7116 </r>
       <r>    12.5844     1.3233     9.8581 </r>
       <r>    12.6951     1.4452    10.0181 </r>
       <r>    12.8058     1.4857    10.1826 </r>
       <r>    12.9166     1.3834    10.3358 </r>
       <r>    13.0273     1.2597    10.4752 </r>
       <r>    13.1380     1.2337    10.6118 </r>
       <r>    13.2487     1.3158    10.7575 </r>
       <r>    13.3594     1.3934    10.9118 </r>
       <r>    13.4702     1.3255    11.0586 </r>
       <r>    13.5809     1.1418    11.1850 </r>
       <r>    13.6916     1.0288    11.2989 </r>
       <r>    13.8023     0.9895    11.4084 </r>
       <r>    13.9130     0.9830    11.5173 </r>
       <r>    14.0238     1.0378    11.6322 </r>
       <r>    14.1345     1.0860    11.7524 </r>
       <r>    14.2452     1.1113    11.8755 </r>
       <r>    14.3559     1.1371    12.0014 </r>
       <r>    14.4666     1.0932    12.1224 </r>
       <r>    14.5774     0.9608    12.2288 </r>
       <r>    14.6881     0.8070    12.3182 </r>
       <r>    14.7988     0.8296    12.4100 </r>
       <r>    14.9095     1.1022    12.5321 </r>
       <r>    15.0202     1.3533    12.6819 </r>
       <r>    15.1310     1.4078    12.8378 </r>
       <r>    15.2417     1.3730    12.9898 </r>
       <r>    15.3524     1.3862    13.1433 </r>
       <r>    15.4631     1.3499    13.2927 </r>
       <r>    15.5738     1.2357    13.4295 </r>
       <r>    15.6846     1.1708    13.5592 </r>
       <r>    15.7953     1.1809    13.6899 </r>
       <r>    15.9060     1.2714    13.8307 </r>
       <r>    16.0167     1.4295    13.9890 </r>
       <r>    16.1274     1.5088    14.1560 </r>
       <r>    16.2382     1.3970    14.3107 </r>
       <r>    16.3489     1.2386    14.4478 </r>
       <r>    16.4596     1.1933    14.5799 </r>
       <r>    16.5703     1.2236    14.7154 </r>
       <r>    16.6810     1.2538    14.8543 </r>
       <r>    16.7918     1.2743    14.9953 </r>
       <r>    16.9025     1.2430    15.1330 </r>
       <r>    17.0132     1.1938    15.2651 </r>
       <r>    17.1239     1.2782    15.4067 </r>
       <r>    17.2346     1.4020    15.5619 </r>
       <r>    17.3454     1.3695    15.7135 </r>
       <r>    17.4561     1.1992    15.8463 </r>
       <r>    17.5668     1.1008    15.9682 </r>
       <r>    17.6775     1.1925    16.1002 </r>
       <r>    17.7882     1.2103    16.2342 </r>
       <r>    17.8990     1.0806    16.3539 </r>
       <r>    18.0097     1.1228    16.4782 </r>
       <r>    18.1204     1.2685    16.6186 </r>
       <r>    18.2311     1.2780    16.7601 </r>
       <r>    18.3418     1.2512    16.8987 </r>
       <r>    18.4526     1.2589    17.0381 </r>
       <r>    18.5633     1.1569    17.1661 </r>
       <r>    18.6740     0.9304    17.2692 </r>
       <r>    18.7847     0.8709    17.3656 </r>
       <r>    18.8954     1.1553    17.4935 </r>
       <r>    19.0062     1.3850    17.6469 </r>
       <r>    19.1169     1.1593    17.7752 </r>
       <r>    19.2276     0.9127    17.8763 </r>
       <r>    19.3383     1.0826    17.9961 </r>
       <r>    19.4490     1.2980    18.1398 </r>
       <r>    19.5598     1.2572    18.2790 </r>
       <r>    19.6705     1.1508    18.4065 </r>
       <r>    19.7812     1.1474    18.5335 </r>
       <r>    19.8919     1.2129    18.6678 </r>
       <r>    20.0026     1.2066    18.8014 </r>
       <r>    20.1134     1.1426    18.9279 </r>
       <r>    20.2241     1.2042    19.0612 </r>
       <r>    20.3348     1.2907    19.2041 </r>
       <r>    20.4455     1.3018    19.3483 </r>
       <r>    20.5562     1.2158    19.4829 </r>
       <r>    20.6670     1.1355    19.6086 </r>
       <r>    20.7777     1.2278    19.7445 </r>
       <r>    20.8884     1.3435    19.8933 </r>
       <r>    20.9991     1.3478    20.0425 </r>
       <r>    21.1098     1.3127    20.1879 </r>
       <r>    21.2206     1.2704    20.3285 </r>
       <r>    21.3313     1.1533    20.4562 </r>
       <r>    21.4420     1.1596    20.5846 </r>
       <r>    21.5527     1.4399    20.7440 </r>
       <r>    21.6634     1.5755    20.9185 </r>
       <r>    21.7742     1.4027    21.0738 </r>
       <r>    21.8849     1.2405    21.2111 </r>
       <r>    21.9956     1.2760    21.3524 </r>
       <r>    22.1063     1.4683    21.5150 </r>
       <r>    22.2170     1.5849    21.6905 </r>
       <r>    22.3278     1.4679    21.8530 </r>
       <r>    22.4385     1.3136    21.9984 </r>
       <r>    22.5492     1.4004    22.1535 </r>
       <r>    22.6599     1.5489    22.3250 </r>
       <r>    22.7706     1.5875    22.5007 </r>
       <r>    22.8814     1.6206    22.6802 </r>
       <r>    22.9921     1.6462    22.8624 </r>
       <r>    23.1028     1.6790    23.0483 </r>
       <r>    23.2135     1.7631    23.2436 </r>
       <r>    23.3242     1.8230    23.4454 </r>
       <r>    23.4350     1.7692    23.6413 </r>
       <r>    23.5457     1.7356    23.8335 </r>
       <r>    23.6564     1.8084    24.0337 </r>
       <r>    23.7671     1.8259    24.2358 </r>
       <r>    23.8778     1.8147    24.4368 </r>
       <r>    23.9886     1.8176    24.6380 </r>
       <r>    24.0993     1.7434    24.8310 </r>
       <r>    24.2100     1.6474    25.0134 </r>
       <r>    24.3207     1.6299    25.1939 </r>
       <r>    24.4314     1.6476    25.3763 </r>
       <r>    24.5422     1.6190    25.5556 </r>
       <r>    24.6529     1.5252    25.7245 </r>
       <r>    24.7636     1.3924    25.8786 </r>
       <r>    24.8743     1.2803    26.0204 </r>
       <r>    24.9850     1.3397    26.1687 </r>
       <r>    25.0958     1.3876    26.3223 </r>
       <r>    25.2065     1.1983    26.4550 </r>
       <r>    25.3172     0.9751    26.5630 </r>
       <r>    25.4279     0.8570    26.6579 </r>
       <r>    25.5386     0.8637    26.7535 </r>
       <r>    25.6494     0.9064    26.8538 </r>
       <r>    25.7601     0.7869    26.9410 </r>
       <r>    25.8708     0.5978    27.0072 </r>
       <r>    25.9815     0.5720    27.0705 </r>
       <r>    26.0922     0.6814    27.1459 </r>
       <r>    26.2030     0.6820    27.2214 </r>
       <r>    26.3137     0.5400    27.2812 </r>
       <r>    26.4244     0.4812    27.3345 </r>
       <r>    26.5351     0.5572    27.3962 </r>
       <r>    26.6458     0.5765    27.4600 </r>
       <r>    26.7566     0.4984    27.5152 </r>
       <r>    26.8673     0.4623    27.5664 </r>
       <r>    26.9780     0.4824    27.6198 </r>
       <r>    27.0887     0.4630    27.6711 </r>
       <r>    27.1994     0.3831    27.7135 </r>
       <r>    27.3102     0.3219    27.7491 </r>
       <r>    27.4209     0.3082    27.7833 </r>
       <r>    27.5316     0.3062    27.8172 </r>
       <r>    27.6423     0.2847    27.8487 </r>
       <r>    27.7530     0.2519    27.8766 </r>
       <r>    27.8638     0.2463    27.9038 </r>
       <r>    27.9745     0.2380    27.9302 </r>
       <r>    28.0852     0.1780    27.9499 </r>
       <r>    28.1959     0.1161    27.9628 </r>
       <r>    28.3066     0.1049    27.9744 </r>
       <r>    28.4174     0.1053    27.9860 </r>
       <r>    28.5281     0.0805    27.9949 </r>
       <r>    28.6388     0.0396    27.9993 </r>
       <r>    28.7495     0.0094    28.0004 </r>
       <r>    28.8602    -0.0012    28.0002 </r>
       <r>    28.9710    -0.0016    28.0001 </r>
       <r>    29.0817    -0.0005    28.0000 </r>
       <r>    29.1924    -0.0001    28.0000 </r>
       <r>    29.3031    -0.0000    28.0000 </r>
       <r>    29.4138    -0.0000    28.0000 </r>
       <r>    29.5246    -0.0000    28.0000 </r>
       <r>    29.6353    -0.0000    28.0000 </r>
       <r>    29.7460    -0.0000    28.0000 </r>
       <r>    29.8567    -0.0000    28.0000 </r>
       <r>    29.9674     0.0000    28.0000 </r>
       <r>    30.0782     0.0000    28.0000 </r>
       <r>    30.1889     0.0000    28.0000 </r>
       <r>    30.2996     0.0000    28.0000 </r>
       <r>    30.4103     0.0000    28.0000 </r>
       <r>    30.5210     0.0000    28.0000 </r>
       <r>    30.6318     0.0000    28.0000 </r>
      </set>
     </set>
    </array>
   </total>
  </dos>
 </calculation>
 <structure name="finalpos" >
  <crystal>
   <varray name="basis" >
    <v>       3.40656524       0.00000000       0.00000000 </v>
    <v>      -0.00000000       3.40656524       0.00000000 </v>
    <v>       0.00000000       0.00000000       3.40656524 </v>
   </varray>
   <i name="volume">     39.53212231 </i>
   <varray name="rec_basis" >
    <v>       0.29355081       0.00000000      -0.00000000 </v>
    <v>       0.00000000       0.29355081       0.00000000 </v>
    <v>      -0.00000000      -0.00000000       0.29355081 </v>
   </varray>
  </crystal>
  <varray name="positions" >
   <v>       0.00000000       0.00000000       0.00000000 </v>
   <v>       0.00000000       0.50000000       0.50000000 </v>
   <v>       0.50000000       0.00000000       0.50000000 </v>
   <v>       0.50000000       0.50000000       0.00000000 </v>
  </varray>
 </structure>
</modeling>
