ITEM: TIMESTEP
0
ITEM: NUMBER OF ATOMS
4
ITEM: BOX BOUNDS xy xz yz pp pp pp
-8.0738719000000000e-02 4.0369359481000000e+00 -8.0738719000000000e-02
0.0000000000000000e+00 4.0361284802000004e+00 0.0000000000000000e+00
0.0000000000000000e+00 4.0369359481000000e+00 0.0000000000000000e+00
ITEM: ATOMS id type xs ys zs fx fy fz
1 1 0 0 0 2.37119e-10 1.74503e-11 2.36786e-10
4 1 0.5 0 0.5 -2.37119e-10 -1.74502e-11 -2.36786e-10
3 1 0.5 0.5 0 -2.3712e-10 -1.74504e-11 2.36786e-10
2 1 5.20417e-18 0.5 0.5 2.37119e-10 1.74503e-11 -2.36786e-10
ITEM: TIMESTEP
1
ITEM: NUMBER OF ATOMS
4
ITEM: BOX BOUNDS xy xz yz pp pp pp
-8.0738719000000000e-02 4.0369359481000000e+00 -8.0738719000000000e-02
0.0000000000000000e+00 4.0361284802000004e+00 0.0000000000000000e+00
0.0000000000000000e+00 4.0369359481000000e+00 0.0000000000000000e+00
ITEM: ATOMS id type xs ys zs fx fy fz
1 1 6.18255e-12 4.54415e-13 6.16477e-12 -5.38361e-13 -7.26548e-12 1.07084e-12
3 1 0.5 0.5 6.16477e-12 5.38541e-13 7.26494e-12 1.07099e-12
2 1 6.18256e-12 0.5 0.5 -5.38847e-13 -7.26495e-12 -1.07091e-12
4 1 0.5 1 0.5 5.38555e-13 7.26543e-12 -1.07096e-12
