
4 atoms
1 atom types
   0.0000000000    3.4007205062 xlo xhi
   0.0000000000    3.4007205062 ylo yhi
   0.0000000000    3.4007205062 zlo zhi
   0.0000000000   -0.0000000000   -0.0000000000 xy xz yz

Atoms # atomic

     1      1    0.0000000000    0.0000000000    0.0000000000
     2      1    0.0000000000    1.7003602531    1.7003602531
     3      1    1.7003602531    1.7003602531    0.0000000000
     4      1    1.7003602531    0.0000000000    1.7003602531
