ITEM: TIMESTEP
0
ITEM: NUMBER OF ATOMS
4
ITEM: BOX BOUNDS xy xz yz pp pp pp
0.0000000000000000e+00 3.4007205061999999e+00 0.0000000000000000e+00
0.0000000000000000e+00 3.4007205061999999e+00 -0.0000000000000000e+00
0.0000000000000000e+00 3.4007205061999999e+00 -0.0000000000000000e+00
ITEM: ATOMS id type xs ys zs fx fy fz
1 1 0 0 0 0 4.44089e-16 4.44089e-15
4 1 0.5 0 0.5 -1.52656e-16 4.59702e-16 2.69923e-15
3 1 0.5 0.5 0 2.91434e-16 -2.06432e-16 4.47559e-15
2 1 0 0.5 0.5 0 2.22045e-16 1.77636e-15
ITEM: TIMESTEP
1
ITEM: NUMBER OF ATOMS
4
ITEM: BOX BOUNDS xy xz yz pp pp pp
0.0000000000000000e+00 3.4007205061999999e+00 0.0000000000000000e+00
0.0000000000000000e+00 3.4007205061999999e+00 -0.0000000000000000e+00
0.0000000000000000e+00 3.4007205061999999e+00 -0.0000000000000000e+00
ITEM: ATOMS id type xs ys zs fx fy fz
1 1 0 3.43816e-17 3.43816e-16 -4.44089e-16 -4.35936e-15 -9.99201e-15
4 1 0.5 3.55903e-17 0.5 -4.71845e-16 -2.09728e-15 1.55709e-14
3 1 0.5 0.5 3.46502e-16 8.36137e-16 5.66951e-15 -1.06234e-14
2 1 0 0.5 0.5 0 1.64018e-15 1.84297e-14
