 running   14 mpi-ranks, with    2 threads/rank, on    1 nodes
 distrk:  each k-point on   14 cores,    1 groups
 distr:  one band on    1 cores,   14 groups
 vasp.6.4.2 20Jul23 (build Apr 22 2024 22:35:45) complex                         
 POSCAR found type information on POSCAR Al
 POSCAR found :  1 types and       4 ions
 scaLAPACK will be used
 -----------------------------------------------------------------------------
|                                                                             |
|               ----> ADVICE to this user running VASP <----                  |
|                                                                             |
|     You have a (more or less) 'small supercell' and for smaller cells       |
|     it is recommended to use the reciprocal-space projection scheme!        |
|     The real-space optimization is not efficient for small cells and it     |
|     is also less accurate ...                                               |
|     Therefore, set LREAL=.FALSE. in the INCAR file.                         |
|                                                                             |
 -----------------------------------------------------------------------------

 LDA part: xc-table for Pade appr. of Perdew
 POSCAR, INCAR and KPOINTS ok, starting setup
 FFT: planning ... GRIDC
 FFT: planning ... GRID_SOFT
 FFT: planning ... GRID
 WAVECAR not read
 entering main loop
       N       E                     dE             d eps       ncg     rms          rms(c)
DAV:   1    -0.953033520341E-01   -0.95303E-01   -0.40841E+03  8078   0.536E+02
DAV:   2    -0.140716464695E+02   -0.13976E+02   -0.13577E+02 11802   0.532E+01
DAV:   3    -0.141349929200E+02   -0.63346E-01   -0.63125E-01 10206   0.489E+00
DAV:   4    -0.141351288720E+02   -0.13595E-03   -0.13595E-03 13426   0.218E-01
DAV:   5    -0.141351289190E+02   -0.47041E-07   -0.45770E-07 10416   0.328E-03    0.356E+00
RMM:   6    -0.140640070692E+02    0.71122E-01   -0.23235E-03  8008   0.279E-01    0.210E+00
RMM:   7    -0.140137775181E+02    0.50230E-01   -0.83463E-03  8008   0.514E-01    0.265E-01
RMM:   8    -0.140137523765E+02    0.25142E-04   -0.97092E-04  8008   0.201E-01    0.312E-02
RMM:   9    -0.140137543842E+02   -0.20077E-05   -0.10464E-04  8008   0.770E-02    0.293E-02
RMM:  10    -0.140137526415E+02    0.17427E-05   -0.23124E-05  8008   0.319E-02    0.846E-02
RMM:  11    -0.140137541424E+02   -0.15009E-05   -0.36027E-06  7722   0.137E-02    0.288E-02
RMM:  12    -0.140137535314E+02    0.61098E-06   -0.78749E-07  5569   0.630E-03
   1 F= -.14013754E+02 E0= -.14013844E+02  d E =-.140138E+02
 curvature:   0.00 expect dE= 0.000E+00 dE for cont linesearch  0.000E+00
 trial: gam= 0.00000 g(F)=  0.228E-63 g(S)=  0.157E-31 ort = 0.000E+00 (trialstep = 0.100E+01)
 search vector abs. value=  0.100E-09
 reached required accuracy - stopping structural energy minimisation
