 vasp.6.4.2 20Jul23 (build Apr 22 2024 22:35:45) complex                         
 executed on             LinuxGNU date 2024.05.26  15:42:57
 running   14 mpi-ranks, with    2 threads/rank, on    1 nodes
 distrk:  each k-point on   14 cores,    1 groups
 distr:  one band on NCORE=   1 cores,   14 groups


--------------------------------------------------------------------------------------------------------


 INCAR:
   ALGO = Fast
   EDIFF = 1e-06
   ENCUT = 400
   IBRION = 2
   ISIF = 4
   ISMEAR = 1
   KSPACING = 0.08
   LCHARG = False
   LREAL = Auto
   LWAVE = False
   NELM = 60
   NELMIN = 4
   NSW = 100
   PREC = Accurate
   SIGMA = 0.2
   SYSTEM = Al fcc relaxation

 POTCAR:    PAW_PBE Al 04Jan2001                  
 POTCAR:    PAW_PBE Al 04Jan2001                  
   SHA256 =  17880443556af62b473fe41b62a467bd001ad55d2cabe504a3f22e34d4e9db96 Al/POTCAR             
   COPYR  = (c) Copyright 04Jan2001 Georg Kresse                                                    
   COPYR  = This file is part of the software VASP. Any use, copying, and all other rights are regul
   COPYR  = If you do not have a valid VASP license, you may not use, copy or distribute this file. 
   VRHFIN =Al: s2p1                                                                                 
   LEXCH  = PE                                                                                      
   EATOM  =    53.5387 eV,    3.9350 Ry                                                             
                                                                                                    
   TITEL  = PAW_PBE Al 04Jan2001                                                                    
   LULTRA =        F    use ultrasoft PP ?                                                          
   IUNSCR =        1    unscreen: 0-lin 1-nonlin 2-no                                               
   RPACOR =    1.500    partial core radius                                                         
   POMASS =   26.981; ZVAL   =    3.000    mass and valenz                                          
   RCORE  =    1.900    outmost cutoff radius                                                       
   RWIGS  =    2.650; RWIGS  =    1.402    wigner-seitz radius (au A)                               
   ENMAX  =  240.300; ENMIN  =  180.225 eV                                                          
   ICORE  =        2    local potential                                                             
   LCOR   =        T    correct aug charges                                                         
   LPAW   =        T    paw PP                                                                      
   EAUG   =  291.052                                                                                
   DEXC   =    0.000                                                                                
   RMAX   =    1.939    core radius for proj-oper                                                   
   RAUG   =    1.300    factor for augmentation sphere                                              
   RDEP   =    1.966    radius for radial grids                                                     
   RDEPT  =    1.856    core radius for aug-charge                                                  
                                                                                                    
   Atomic configuration                                                                             
    6 entries                                                                                       
     n  l   j            E        occ.                                                              
     1  0  0.50     -1511.1048   2.0000                                                             
     2  0  0.50      -108.1629   2.0000                                                             
     2  1  1.50       -69.6402   6.0000                                                             
     3  0  0.50        -7.7528   2.0000                                                             
     3  1  1.50        -2.7121   1.0000                                                             
     3  2  2.50        -2.7212   0.0000                                                             
   Description                                                                                      
     l       E           TYP  RCUT    TYP  RCUT                                                     
     0     -7.7528455     23  1.900                                                                 
     0     -3.3096929     23  1.900                                                                 
     1     -2.7120682     23  1.900                                                                 
     1     13.6058260     23  1.900                                                                 
     2     -2.7211652      7  1.900                                                                 
  local pseudopotential read in
  partial core-charges read in
  partial kinetic energy density read in
  atomic valenz-charges read in
  non local Contribution for L=           0  read in
    real space projection operators read in
  non local Contribution for L=           0  read in
    real space projection operators read in
  non local Contribution for L=           1  read in
    real space projection operators read in
  non local Contribution for L=           1  read in
    real space projection operators read in
    PAW grid and wavefunctions read in

   number of l-projection  operators is LMAX  =           4
   number of lm-projection operators is LMMAX =           8

 -----------------------------------------------------------------------------
|                                                                             |
|               ----> ADVICE to this user running VASP <----                  |
|                                                                             |
|     You have a (more or less) 'small supercell' and for smaller cells       |
|     it is recommended to use the reciprocal-space projection scheme!        |
|     The real-space optimization is not efficient for small cells and it     |
|     is also less accurate ...                                               |
|     Therefore, set LREAL=.FALSE. in the INCAR file.                         |
|                                                                             |
 -----------------------------------------------------------------------------

 Optimization of the real space projectors (new method)

 maximal supplied QI-value         = 19.84
 optimisation between [QCUT,QGAM] = [ 10.12, 20.44] = [ 28.68,116.96] Ry 
 Optimized for a Real-space Cutoff    1.38 Angstroem

   l    n(q)    QCUT    max X(q) W(low)/X(q) W(high)/X(q)  e(spline) 
   0      8    10.119   176.870    0.39E-04    0.93E-04    0.54E-07
   0      8    10.119   105.762    0.37E-04    0.91E-04    0.53E-07
   1      8    10.119    55.370    0.18E-03    0.13E-03    0.19E-06
   1      8    10.119    20.208    0.17E-03    0.12E-03    0.18E-06
  PAW_PBE Al 04Jan2001                  :
 energy of atom  1       EATOM=  -53.5387
 kinetic energy error for atom=    0.0005 (will be added to EATOM!!)


 POSCAR: Al4
  positions in direct lattice
  velocities in cartesian coordinates
 exchange correlation table for  LEXCH =        8
   RHO(1)=    0.500       N(1)  =     2000
   RHO(2)=  100.500       N(2)  =     4000



--------------------------------------------------------------------------------------------------------


 ion  position               nearest neighbor table
   1  0.000  0.000  0.000-   2 2.65   3 2.65   4 2.65   2 2.65   3 2.65   2 2.65   4 2.65   2 2.65
                             3 2.65   4 2.65   3 2.65   4 2.65
   2  0.000  0.500  0.500-   1 2.65   3 2.65   4 2.65   1 2.65   4 2.65   1 2.65   3 2.65   1 2.65
                             3 2.65   4 2.65   4 2.65   3 2.65
   3  0.500  0.000  0.500-   1 2.65   2 2.65   4 2.65   1 2.65   4 2.65   2 2.65   4 2.65   4 2.65
                             1 2.65   2 2.65   1 2.65   2 2.65
   4  0.500  0.500  0.000-   1 2.65   2 2.65   3 2.65   2 2.65   3 2.65   1 2.65   3 2.65   3 2.65
                             1 2.65   2 2.65   2 2.65   1 2.65

  LATTYP: Found a simple cubic cell.
 ALAT       =     3.7494101927
  
  Lattice vectors:
  
 A1 = (   3.7494101927,   0.0000000000,   0.0000000000)
 A2 = (  -0.0000000000,   3.7494101927,   0.0000000000)
 A3 = (   0.0000000000,   0.0000000000,   3.7494101927)


Analysis of symmetry for initial positions (statically):
=====================================================================
 Subroutine PRICEL returns following result:
 
  LATTYP: Found a face centered cubic cell.
 ALAT       =     3.7494101927
  
  Lattice vectors:
  
 A1 = (   1.8747050964,  -1.8747050964,   0.0000000000)
 A2 = (   1.8747050964,   0.0000000000,   1.8747050964)
 A3 = (   0.0000000000,  -1.8747050964,   1.8747050964)
 
   4 primitive cells build up your supercell.
 

 Routine SETGRP: Setting up the symmetry group for a 
 simple cubic supercell.


 Subroutine GETGRP returns: Found 48 space group operations
 (whereof 48 operations were pure point group operations)
 out of a pool of 48 trial point group operations.


The static configuration has the point symmetry O_h .


Analysis of symmetry for dynamics (positions and initial velocities):
=====================================================================
 Subroutine PRICEL returns following result:
 
  LATTYP: Found a face centered cubic cell.
 ALAT       =     3.7494101927
  
  Lattice vectors:
  
 A1 = (   1.8747050964,  -1.8747050964,   0.0000000000)
 A2 = (   1.8747050964,   0.0000000000,   1.8747050964)
 A3 = (   0.0000000000,  -1.8747050964,   1.8747050964)
 
   4 primitive cells build up your supercell.
 

 Routine SETGRP: Setting up the symmetry group for a 
 simple cubic supercell.


 Subroutine GETGRP returns: Found 48 space group operations
 (whereof 48 operations were pure point group operations)
 out of a pool of 48 trial point group operations.


The dynamic configuration has the point symmetry O_h .


 Subroutine INISYM returns: Found 48 space group operations
 (whereof 48 operations are pure point group operations),
 and found     4 'primitive' translations


----------------------------------------------------------------------------------------

                                     Primitive cell                                     

  volume of cell :      13.1774

  direct lattice vectors                    reciprocal lattice vectors
     1.874705096 -1.874705096  0.000000000     0.266708615 -0.266708615 -0.266708615
     1.874705096  0.000000000  1.874705096     0.266708615  0.266708615  0.266708615
     0.000000000 -1.874705096  1.874705096    -0.266708615 -0.266708615  0.266708615

  length of vectors
     2.651233373  2.651233373  2.651233373     0.461952872  0.461952872  0.461952872

  position of ions in fractional coordinates (direct lattice)
     0.000000000  0.000000000  0.000000000

  ion indices of the primitive-cell ions
   primitive index   ion index
                 1           1

----------------------------------------------------------------------------------------



 KPOINTS: Automatic kpoint scheme                 

Automatic generation of k-mesh.
 Grid dimensions read from file:
 generate k-points for:   21   21   21

 Generating k-lattice:

  Cartesian coordinates                     Fractional coordinates (reciprocal lattice)
     0.012700410  0.000000000 -0.000000000     0.047619048  0.000000000  0.000000000
     0.000000000  0.012700410  0.000000000     0.000000000  0.047619048  0.000000000
    -0.000000000 -0.000000000  0.012700410    -0.000000000 -0.000000000  0.047619048

  Length of vectors
     0.012700410  0.012700410  0.012700410

  Shift w.r.t. Gamma in fractional coordinates (k-lattice)
     0.000000000  0.000000000  0.000000000

 
 Subroutine IBZKPT returns following result:
 ===========================================
 
 Found    286 irreducible k-points:
 
 Following reciprocal coordinates:
            Coordinates               Weight
  0.000000  0.000000  0.000000      1.000000
  0.047619  0.000000  0.000000      6.000000
  0.095238  0.000000  0.000000      6.000000
  0.142857  0.000000  0.000000      6.000000
  0.190476  0.000000  0.000000      6.000000
  0.238095  0.000000  0.000000      6.000000
  0.285714  0.000000  0.000000      6.000000
  0.333333  0.000000  0.000000      6.000000
  0.380952  0.000000  0.000000      6.000000
  0.428571  0.000000  0.000000      6.000000
  0.476190  0.000000  0.000000      6.000000
  0.047619  0.047619  0.000000     12.000000
  0.095238  0.047619  0.000000     24.000000
  0.142857  0.047619  0.000000     24.000000
  0.190476  0.047619  0.000000     24.000000
  0.238095  0.047619  0.000000     24.000000
  0.285714  0.047619  0.000000     24.000000
  0.333333  0.047619  0.000000     24.000000
  0.380952  0.047619  0.000000     24.000000
  0.428571  0.047619  0.000000     24.000000
  0.476190  0.047619  0.000000     24.000000
  0.095238  0.095238  0.000000     12.000000
  0.142857  0.095238  0.000000     24.000000
  0.190476  0.095238  0.000000     24.000000
  0.238095  0.095238  0.000000     24.000000
  0.285714  0.095238  0.000000     24.000000
  0.333333  0.095238  0.000000     24.000000
  0.380952  0.095238  0.000000     24.000000
  0.428571  0.095238  0.000000     24.000000
  0.476190  0.095238  0.000000     24.000000
  0.142857  0.142857  0.000000     12.000000
  0.190476  0.142857  0.000000     24.000000
  0.238095  0.142857  0.000000     24.000000
  0.285714  0.142857  0.000000     24.000000
  0.333333  0.142857  0.000000     24.000000
  0.380952  0.142857  0.000000     24.000000
  0.428571  0.142857  0.000000     24.000000
  0.476190  0.142857  0.000000     24.000000
  0.190476  0.190476  0.000000     12.000000
  0.238095  0.190476  0.000000     24.000000
  0.285714  0.190476  0.000000     24.000000
  0.333333  0.190476  0.000000     24.000000
  0.380952  0.190476  0.000000     24.000000
  0.428571  0.190476  0.000000     24.000000
  0.476190  0.190476  0.000000     24.000000
  0.238095  0.238095  0.000000     12.000000
  0.285714  0.238095  0.000000     24.000000
  0.333333  0.238095  0.000000     24.000000
  0.380952  0.238095  0.000000     24.000000
  0.428571  0.238095  0.000000     24.000000
  0.476190  0.238095  0.000000     24.000000
  0.285714  0.285714  0.000000     12.000000
  0.333333  0.285714  0.000000     24.000000
  0.380952  0.285714  0.000000     24.000000
  0.428571  0.285714  0.000000     24.000000
  0.476190  0.285714  0.000000     24.000000
  0.333333  0.333333  0.000000     12.000000
  0.380952  0.333333  0.000000     24.000000
  0.428571  0.333333  0.000000     24.000000
  0.476190  0.333333  0.000000     24.000000
  0.380952  0.380952  0.000000     12.000000
  0.428571  0.380952  0.000000     24.000000
  0.476190  0.380952  0.000000     24.000000
  0.428571  0.428571  0.000000     12.000000
  0.476190  0.428571  0.000000     24.000000
  0.476190  0.476190  0.000000     12.000000
  0.047619  0.047619  0.047619      8.000000
  0.095238  0.047619  0.047619     24.000000
  0.142857  0.047619  0.047619     24.000000
  0.190476  0.047619  0.047619     24.000000
  0.238095  0.047619  0.047619     24.000000
  0.285714  0.047619  0.047619     24.000000
  0.333333  0.047619  0.047619     24.000000
  0.380952  0.047619  0.047619     24.000000
  0.428571  0.047619  0.047619     24.000000
  0.476190  0.047619  0.047619     24.000000
  0.095238  0.095238  0.047619     24.000000
  0.142857  0.095238  0.047619     48.000000
  0.190476  0.095238  0.047619     48.000000
  0.238095  0.095238  0.047619     48.000000
  0.285714  0.095238  0.047619     48.000000
  0.333333  0.095238  0.047619     48.000000
  0.380952  0.095238  0.047619     48.000000
  0.428571  0.095238  0.047619     48.000000
  0.476190  0.095238  0.047619     48.000000
  0.142857  0.142857  0.047619     24.000000
  0.190476  0.142857  0.047619     48.000000
  0.238095  0.142857  0.047619     48.000000
  0.285714  0.142857  0.047619     48.000000
  0.333333  0.142857  0.047619     48.000000
  0.380952  0.142857  0.047619     48.000000
  0.428571  0.142857  0.047619     48.000000
  0.476190  0.142857  0.047619     48.000000
  0.190476  0.190476  0.047619     24.000000
  0.238095  0.190476  0.047619     48.000000
  0.285714  0.190476  0.047619     48.000000
  0.333333  0.190476  0.047619     48.000000
  0.380952  0.190476  0.047619     48.000000
  0.428571  0.190476  0.047619     48.000000
  0.476190  0.190476  0.047619     48.000000
  0.238095  0.238095  0.047619     24.000000
  0.285714  0.238095  0.047619     48.000000
  0.333333  0.238095  0.047619     48.000000
  0.380952  0.238095  0.047619     48.000000
  0.428571  0.238095  0.047619     48.000000
  0.476190  0.238095  0.047619     48.000000
  0.285714  0.285714  0.047619     24.000000
  0.333333  0.285714  0.047619     48.000000
  0.380952  0.285714  0.047619     48.000000
  0.428571  0.285714  0.047619     48.000000
  0.476190  0.285714  0.047619     48.000000
  0.333333  0.333333  0.047619     24.000000
  0.380952  0.333333  0.047619     48.000000
  0.428571  0.333333  0.047619     48.000000
  0.476190  0.333333  0.047619     48.000000
  0.380952  0.380952  0.047619     24.000000
  0.428571  0.380952  0.047619     48.000000
  0.476190  0.380952  0.047619     48.000000
  0.428571  0.428571  0.047619     24.000000
  0.476190  0.428571  0.047619     48.000000
  0.476190  0.476190  0.047619     24.000000
  0.095238  0.095238  0.095238      8.000000
  0.142857  0.095238  0.095238     24.000000
  0.190476  0.095238  0.095238     24.000000
  0.238095  0.095238  0.095238     24.000000
  0.285714  0.095238  0.095238     24.000000
  0.333333  0.095238  0.095238     24.000000
  0.380952  0.095238  0.095238     24.000000
  0.428571  0.095238  0.095238     24.000000
  0.476190  0.095238  0.095238     24.000000
  0.142857  0.142857  0.095238     24.000000
  0.190476  0.142857  0.095238     48.000000
  0.238095  0.142857  0.095238     48.000000
  0.285714  0.142857  0.095238     48.000000
  0.333333  0.142857  0.095238     48.000000
  0.380952  0.142857  0.095238     48.000000
  0.428571  0.142857  0.095238     48.000000
  0.476190  0.142857  0.095238     48.000000
  0.190476  0.190476  0.095238     24.000000
  0.238095  0.190476  0.095238     48.000000
  0.285714  0.190476  0.095238     48.000000
  0.333333  0.190476  0.095238     48.000000
  0.380952  0.190476  0.095238     48.000000
  0.428571  0.190476  0.095238     48.000000
  0.476190  0.190476  0.095238     48.000000
  0.238095  0.238095  0.095238     24.000000
  0.285714  0.238095  0.095238     48.000000
  0.333333  0.238095  0.095238     48.000000
  0.380952  0.238095  0.095238     48.000000
  0.428571  0.238095  0.095238     48.000000
  0.476190  0.238095  0.095238     48.000000
  0.285714  0.285714  0.095238     24.000000
  0.333333  0.285714  0.095238     48.000000
  0.380952  0.285714  0.095238     48.000000
  0.428571  0.285714  0.095238     48.000000
  0.476190  0.285714  0.095238     48.000000
  0.333333  0.333333  0.095238     24.000000
  0.380952  0.333333  0.095238     48.000000
  0.428571  0.333333  0.095238     48.000000
  0.476190  0.333333  0.095238     48.000000
  0.380952  0.380952  0.095238     24.000000
  0.428571  0.380952  0.095238     48.000000
  0.476190  0.380952  0.095238     48.000000
  0.428571  0.428571  0.095238     24.000000
  0.476190  0.428571  0.095238     48.000000
  0.476190  0.476190  0.095238     24.000000
  0.142857  0.142857  0.142857      8.000000
  0.190476  0.142857  0.142857     24.000000
  0.238095  0.142857  0.142857     24.000000
  0.285714  0.142857  0.142857     24.000000
  0.333333  0.142857  0.142857     24.000000
  0.380952  0.142857  0.142857     24.000000
  0.428571  0.142857  0.142857     24.000000
  0.476190  0.142857  0.142857     24.000000
  0.190476  0.190476  0.142857     24.000000
  0.238095  0.190476  0.142857     48.000000
  0.285714  0.190476  0.142857     48.000000
  0.333333  0.190476  0.142857     48.000000
  0.380952  0.190476  0.142857     48.000000
  0.428571  0.190476  0.142857     48.000000
  0.476190  0.190476  0.142857     48.000000
  0.238095  0.238095  0.142857     24.000000
  0.285714  0.238095  0.142857     48.000000
  0.333333  0.238095  0.142857     48.000000
  0.380952  0.238095  0.142857     48.000000
  0.428571  0.238095  0.142857     48.000000
  0.476190  0.238095  0.142857     48.000000
  0.285714  0.285714  0.142857     24.000000
  0.333333  0.285714  0.142857     48.000000
  0.380952  0.285714  0.142857     48.000000
  0.428571  0.285714  0.142857     48.000000
  0.476190  0.285714  0.142857     48.000000
  0.333333  0.333333  0.142857     24.000000
  0.380952  0.333333  0.142857     48.000000
  0.428571  0.333333  0.142857     48.000000
  0.476190  0.333333  0.142857     48.000000
  0.380952  0.380952  0.142857     24.000000
  0.428571  0.380952  0.142857     48.000000
  0.476190  0.380952  0.142857     48.000000
  0.428571  0.428571  0.142857     24.000000
  0.476190  0.428571  0.142857     48.000000
  0.476190  0.476190  0.142857     24.000000
  0.190476  0.190476  0.190476      8.000000
  0.238095  0.190476  0.190476     24.000000
  0.285714  0.190476  0.190476     24.000000
  0.333333  0.190476  0.190476     24.000000
  0.380952  0.190476  0.190476     24.000000
  0.428571  0.190476  0.190476     24.000000
  0.476190  0.190476  0.190476     24.000000
  0.238095  0.238095  0.190476     24.000000
  0.285714  0.238095  0.190476     48.000000
  0.333333  0.238095  0.190476     48.000000
  0.380952  0.238095  0.190476     48.000000
  0.428571  0.238095  0.190476     48.000000
  0.476190  0.238095  0.190476     48.000000
  0.285714  0.285714  0.190476     24.000000
  0.333333  0.285714  0.190476     48.000000
  0.380952  0.285714  0.190476     48.000000
  0.428571  0.285714  0.190476     48.000000
  0.476190  0.285714  0.190476     48.000000
  0.333333  0.333333  0.190476     24.000000
  0.380952  0.333333  0.190476     48.000000
  0.428571  0.333333  0.190476     48.000000
  0.476190  0.333333  0.190476     48.000000
  0.380952  0.380952  0.190476     24.000000
  0.428571  0.380952  0.190476     48.000000
  0.476190  0.380952  0.190476     48.000000
  0.428571  0.428571  0.190476     24.000000
  0.476190  0.428571  0.190476     48.000000
  0.476190  0.476190  0.190476     24.000000
  0.238095  0.238095  0.238095      8.000000
  0.285714  0.238095  0.238095     24.000000
  0.333333  0.238095  0.238095     24.000000
  0.380952  0.238095  0.238095     24.000000
  0.428571  0.238095  0.238095     24.000000
  0.476190  0.238095  0.238095     24.000000
  0.285714  0.285714  0.238095     24.000000
  0.333333  0.285714  0.238095     48.000000
  0.380952  0.285714  0.238095     48.000000
  0.428571  0.285714  0.238095     48.000000
  0.476190  0.285714  0.238095     48.000000
  0.333333  0.333333  0.238095     24.000000
  0.380952  0.333333  0.238095     48.000000
  0.428571  0.333333  0.238095     48.000000
  0.476190  0.333333  0.238095     48.000000
  0.380952  0.380952  0.238095     24.000000
  0.428571  0.380952  0.238095     48.000000
  0.476190  0.380952  0.238095     48.000000
  0.428571  0.428571  0.238095     24.000000
  0.476190  0.428571  0.238095     48.000000
  0.476190  0.476190  0.238095     24.000000
  0.285714  0.285714  0.285714      8.000000
  0.333333  0.285714  0.285714     24.000000
  0.380952  0.285714  0.285714     24.000000
  0.428571  0.285714  0.285714     24.000000
  0.476190  0.285714  0.285714     24.000000
  0.333333  0.333333  0.285714     24.000000
  0.380952  0.333333  0.285714     48.000000
  0.428571  0.333333  0.285714     48.000000
  0.476190  0.333333  0.285714     48.000000
  0.380952  0.380952  0.285714     24.000000
  0.428571  0.380952  0.285714     48.000000
  0.476190  0.380952  0.285714     48.000000
  0.428571  0.428571  0.285714     24.000000
  0.476190  0.428571  0.285714     48.000000
  0.476190  0.476190  0.285714     24.000000
  0.333333  0.333333  0.333333      8.000000
  0.380952  0.333333  0.333333     24.000000
  0.428571  0.333333  0.333333     24.000000
  0.476190  0.333333  0.333333     24.000000
  0.380952  0.380952  0.333333     24.000000
  0.428571  0.380952  0.333333     48.000000
  0.476190  0.380952  0.333333     48.000000
  0.428571  0.428571  0.333333     24.000000
  0.476190  0.428571  0.333333     48.000000
  0.476190  0.476190  0.333333     24.000000
  0.380952  0.380952  0.380952      8.000000
  0.428571  0.380952  0.380952     24.000000
  0.476190  0.380952  0.380952     24.000000
  0.428571  0.428571  0.380952     24.000000
  0.476190  0.428571  0.380952     48.000000
  0.476190  0.476190  0.380952     24.000000
  0.428571  0.428571  0.428571      8.000000
  0.476190  0.428571  0.428571     24.000000
  0.476190  0.476190  0.428571     24.000000
  0.476190  0.476190  0.476190      8.000000
 
 Following cartesian coordinates:
            Coordinates               Weight
  0.000000  0.000000  0.000000      1.000000
  0.011790  0.000000  0.000000      6.000000
  0.023580  0.000000  0.000000      6.000000
  0.035370  0.000000  0.000000      6.000000
  0.047160  0.000000  0.000000      6.000000
  0.058950  0.000000  0.000000      6.000000
  0.070740  0.000000  0.000000      6.000000
  0.082530  0.000000  0.000000      6.000000
  0.094320  0.000000  0.000000      6.000000
  0.106110  0.000000  0.000000      6.000000
  0.117900  0.000000  0.000000      6.000000
  0.011790  0.011790  0.000000     12.000000
  0.023580  0.011790  0.000000     24.000000
  0.035370  0.011790  0.000000     24.000000
  0.047160  0.011790  0.000000     24.000000
  0.058950  0.011790  0.000000     24.000000
  0.070740  0.011790  0.000000     24.000000
  0.082530  0.011790  0.000000     24.000000
  0.094320  0.011790  0.000000     24.000000
  0.106110  0.011790  0.000000     24.000000
  0.117900  0.011790  0.000000     24.000000
  0.023580  0.023580  0.000000     12.000000
  0.035370  0.023580  0.000000     24.000000
  0.047160  0.023580  0.000000     24.000000
  0.058950  0.023580  0.000000     24.000000
  0.070740  0.023580  0.000000     24.000000
  0.082530  0.023580  0.000000     24.000000
  0.094320  0.023580  0.000000     24.000000
  0.106110  0.023580  0.000000     24.000000
  0.117900  0.023580  0.000000     24.000000
  0.035370  0.035370  0.000000     12.000000
  0.047160  0.035370  0.000000     24.000000
  0.058950  0.035370  0.000000     24.000000
  0.070740  0.035370  0.000000     24.000000
  0.082530  0.035370  0.000000     24.000000
  0.094320  0.035370  0.000000     24.000000
  0.106110  0.035370  0.000000     24.000000
  0.117900  0.035370  0.000000     24.000000
  0.047160  0.047160  0.000000     12.000000
  0.058950  0.047160  0.000000     24.000000
  0.070740  0.047160  0.000000     24.000000
  0.082530  0.047160  0.000000     24.000000
  0.094320  0.047160  0.000000     24.000000
  0.106110  0.047160  0.000000     24.000000
  0.117900  0.047160  0.000000     24.000000
  0.058950  0.058950  0.000000     12.000000
  0.070740  0.058950  0.000000     24.000000
  0.082530  0.058950  0.000000     24.000000
  0.094320  0.058950  0.000000     24.000000
  0.106110  0.058950  0.000000     24.000000
  0.117900  0.058950  0.000000     24.000000
  0.070740  0.070740  0.000000     12.000000
  0.082530  0.070740  0.000000     24.000000
  0.094320  0.070740  0.000000     24.000000
  0.106110  0.070740  0.000000     24.000000
  0.117900  0.070740  0.000000     24.000000
  0.082530  0.082530  0.000000     12.000000
  0.094320  0.082530  0.000000     24.000000
  0.106110  0.082530  0.000000     24.000000
  0.117900  0.082530  0.000000     24.000000
  0.094320  0.094320  0.000000     12.000000
  0.106110  0.094320  0.000000     24.000000
  0.117900  0.094320  0.000000     24.000000
  0.106110  0.106110  0.000000     12.000000
  0.117900  0.106110  0.000000     24.000000
  0.117900  0.117900  0.000000     12.000000
  0.011790  0.011790  0.011790      8.000000
  0.023580  0.011790  0.011790     24.000000
  0.035370  0.011790  0.011790     24.000000
  0.047160  0.011790  0.011790     24.000000
  0.058950  0.011790  0.011790     24.000000
  0.070740  0.011790  0.011790     24.000000
  0.082530  0.011790  0.011790     24.000000
  0.094320  0.011790  0.011790     24.000000
  0.106110  0.011790  0.011790     24.000000
  0.117900  0.011790  0.011790     24.000000
  0.023580  0.023580  0.011790     24.000000
  0.035370  0.023580  0.011790     48.000000
  0.047160  0.023580  0.011790     48.000000
  0.058950  0.023580  0.011790     48.000000
  0.070740  0.023580  0.011790     48.000000
  0.082530  0.023580  0.011790     48.000000
  0.094320  0.023580  0.011790     48.000000
  0.106110  0.023580  0.011790     48.000000
  0.117900  0.023580  0.011790     48.000000
  0.035370  0.035370  0.011790     24.000000
  0.047160  0.035370  0.011790     48.000000
  0.058950  0.035370  0.011790     48.000000
  0.070740  0.035370  0.011790     48.000000
  0.082530  0.035370  0.011790     48.000000
  0.094320  0.035370  0.011790     48.000000
  0.106110  0.035370  0.011790     48.000000
  0.117900  0.035370  0.011790     48.000000
  0.047160  0.047160  0.011790     24.000000
  0.058950  0.047160  0.011790     48.000000
  0.070740  0.047160  0.011790     48.000000
  0.082530  0.047160  0.011790     48.000000
  0.094320  0.047160  0.011790     48.000000
  0.106110  0.047160  0.011790     48.000000
  0.117900  0.047160  0.011790     48.000000
  0.058950  0.058950  0.011790     24.000000
  0.070740  0.058950  0.011790     48.000000
  0.082530  0.058950  0.011790     48.000000
  0.094320  0.058950  0.011790     48.000000
  0.106110  0.058950  0.011790     48.000000
  0.117900  0.058950  0.011790     48.000000
  0.070740  0.070740  0.011790     24.000000
  0.082530  0.070740  0.011790     48.000000
  0.094320  0.070740  0.011790     48.000000
  0.106110  0.070740  0.011790     48.000000
  0.117900  0.070740  0.011790     48.000000
  0.082530  0.082530  0.011790     24.000000
  0.094320  0.082530  0.011790     48.000000
  0.106110  0.082530  0.011790     48.000000
  0.117900  0.082530  0.011790     48.000000
  0.094320  0.094320  0.011790     24.000000
  0.106110  0.094320  0.011790     48.000000
  0.117900  0.094320  0.011790     48.000000
  0.106110  0.106110  0.011790     24.000000
  0.117900  0.106110  0.011790     48.000000
  0.117900  0.117900  0.011790     24.000000
  0.023580  0.023580  0.023580      8.000000
  0.035370  0.023580  0.023580     24.000000
  0.047160  0.023580  0.023580     24.000000
  0.058950  0.023580  0.023580     24.000000
  0.070740  0.023580  0.023580     24.000000
  0.082530  0.023580  0.023580     24.000000
  0.094320  0.023580  0.023580     24.000000
  0.106110  0.023580  0.023580     24.000000
  0.117900  0.023580  0.023580     24.000000
  0.035370  0.035370  0.023580     24.000000
  0.047160  0.035370  0.023580     48.000000
  0.058950  0.035370  0.023580     48.000000
  0.070740  0.035370  0.023580     48.000000
  0.082530  0.035370  0.023580     48.000000
  0.094320  0.035370  0.023580     48.000000
  0.106110  0.035370  0.023580     48.000000
  0.117900  0.035370  0.023580     48.000000
  0.047160  0.047160  0.023580     24.000000
  0.058950  0.047160  0.023580     48.000000
  0.070740  0.047160  0.023580     48.000000
  0.082530  0.047160  0.023580     48.000000
  0.094320  0.047160  0.023580     48.000000
  0.106110  0.047160  0.023580     48.000000
  0.117900  0.047160  0.023580     48.000000
  0.058950  0.058950  0.023580     24.000000
  0.070740  0.058950  0.023580     48.000000
  0.082530  0.058950  0.023580     48.000000
  0.094320  0.058950  0.023580     48.000000
  0.106110  0.058950  0.023580     48.000000
  0.117900  0.058950  0.023580     48.000000
  0.070740  0.070740  0.023580     24.000000
  0.082530  0.070740  0.023580     48.000000
  0.094320  0.070740  0.023580     48.000000
  0.106110  0.070740  0.023580     48.000000
  0.117900  0.070740  0.023580     48.000000
  0.082530  0.082530  0.023580     24.000000
  0.094320  0.082530  0.023580     48.000000
  0.106110  0.082530  0.023580     48.000000
  0.117900  0.082530  0.023580     48.000000
  0.094320  0.094320  0.023580     24.000000
  0.106110  0.094320  0.023580     48.000000
  0.117900  0.094320  0.023580     48.000000
  0.106110  0.106110  0.023580     24.000000
  0.117900  0.106110  0.023580     48.000000
  0.117900  0.117900  0.023580     24.000000
  0.035370  0.035370  0.035370      8.000000
  0.047160  0.035370  0.035370     24.000000
  0.058950  0.035370  0.035370     24.000000
  0.070740  0.035370  0.035370     24.000000
  0.082530  0.035370  0.035370     24.000000
  0.094320  0.035370  0.035370     24.000000
  0.106110  0.035370  0.035370     24.000000
  0.117900  0.035370  0.035370     24.000000
  0.047160  0.047160  0.035370     24.000000
  0.058950  0.047160  0.035370     48.000000
  0.070740  0.047160  0.035370     48.000000
  0.082530  0.047160  0.035370     48.000000
  0.094320  0.047160  0.035370     48.000000
  0.106110  0.047160  0.035370     48.000000
  0.117900  0.047160  0.035370     48.000000
  0.058950  0.058950  0.035370     24.000000
  0.070740  0.058950  0.035370     48.000000
  0.082530  0.058950  0.035370     48.000000
  0.094320  0.058950  0.035370     48.000000
  0.106110  0.058950  0.035370     48.000000
  0.117900  0.058950  0.035370     48.000000
  0.070740  0.070740  0.035370     24.000000
  0.082530  0.070740  0.035370     48.000000
  0.094320  0.070740  0.035370     48.000000
  0.106110  0.070740  0.035370     48.000000
  0.117900  0.070740  0.035370     48.000000
  0.082530  0.082530  0.035370     24.000000
  0.094320  0.082530  0.035370     48.000000
  0.106110  0.082530  0.035370     48.000000
  0.117900  0.082530  0.035370     48.000000
  0.094320  0.094320  0.035370     24.000000
  0.106110  0.094320  0.035370     48.000000
  0.117900  0.094320  0.035370     48.000000
  0.106110  0.106110  0.035370     24.000000
  0.117900  0.106110  0.035370     48.000000
  0.117900  0.117900  0.035370     24.000000
  0.047160  0.047160  0.047160      8.000000
  0.058950  0.047160  0.047160     24.000000
  0.070740  0.047160  0.047160     24.000000
  0.082530  0.047160  0.047160     24.000000
  0.094320  0.047160  0.047160     24.000000
  0.106110  0.047160  0.047160     24.000000
  0.117900  0.047160  0.047160     24.000000
  0.058950  0.058950  0.047160     24.000000
  0.070740  0.058950  0.047160     48.000000
  0.082530  0.058950  0.047160     48.000000
  0.094320  0.058950  0.047160     48.000000
  0.106110  0.058950  0.047160     48.000000
  0.117900  0.058950  0.047160     48.000000
  0.070740  0.070740  0.047160     24.000000
  0.082530  0.070740  0.047160     48.000000
  0.094320  0.070740  0.047160     48.000000
  0.106110  0.070740  0.047160     48.000000
  0.117900  0.070740  0.047160     48.000000
  0.082530  0.082530  0.047160     24.000000
  0.094320  0.082530  0.047160     48.000000
  0.106110  0.082530  0.047160     48.000000
  0.117900  0.082530  0.047160     48.000000
  0.094320  0.094320  0.047160     24.000000
  0.106110  0.094320  0.047160     48.000000
  0.117900  0.094320  0.047160     48.000000
  0.106110  0.106110  0.047160     24.000000
  0.117900  0.106110  0.047160     48.000000
  0.117900  0.117900  0.047160     24.000000
  0.058950  0.058950  0.058950      8.000000
  0.070740  0.058950  0.058950     24.000000
  0.082530  0.058950  0.058950     24.000000
  0.094320  0.058950  0.058950     24.000000
  0.106110  0.058950  0.058950     24.000000
  0.117900  0.058950  0.058950     24.000000
  0.070740  0.070740  0.058950     24.000000
  0.082530  0.070740  0.058950     48.000000
  0.094320  0.070740  0.058950     48.000000
  0.106110  0.070740  0.058950     48.000000
  0.117900  0.070740  0.058950     48.000000
  0.082530  0.082530  0.058950     24.000000
  0.094320  0.082530  0.058950     48.000000
  0.106110  0.082530  0.058950     48.000000
  0.117900  0.082530  0.058950     48.000000
  0.094320  0.094320  0.058950     24.000000
  0.106110  0.094320  0.058950     48.000000
  0.117900  0.094320  0.058950     48.000000
  0.106110  0.106110  0.058950     24.000000
  0.117900  0.106110  0.058950     48.000000
  0.117900  0.117900  0.058950     24.000000
  0.070740  0.070740  0.070740      8.000000
  0.082530  0.070740  0.070740     24.000000
  0.094320  0.070740  0.070740     24.000000
  0.106110  0.070740  0.070740     24.000000
  0.117900  0.070740  0.070740     24.000000
  0.082530  0.082530  0.070740     24.000000
  0.094320  0.082530  0.070740     48.000000
  0.106110  0.082530  0.070740     48.000000
  0.117900  0.082530  0.070740     48.000000
  0.094320  0.094320  0.070740     24.000000
  0.106110  0.094320  0.070740     48.000000
  0.117900  0.094320  0.070740     48.000000
  0.106110  0.106110  0.070740     24.000000
  0.117900  0.106110  0.070740     48.000000
  0.117900  0.117900  0.070740     24.000000
  0.082530  0.082530  0.082530      8.000000
  0.094320  0.082530  0.082530     24.000000
  0.106110  0.082530  0.082530     24.000000
  0.117900  0.082530  0.082530     24.000000
  0.094320  0.094320  0.082530     24.000000
  0.106110  0.094320  0.082530     48.000000
  0.117900  0.094320  0.082530     48.000000
  0.106110  0.106110  0.082530     24.000000
  0.117900  0.106110  0.082530     48.000000
  0.117900  0.117900  0.082530     24.000000
  0.094320  0.094320  0.094320      8.000000
  0.106110  0.094320  0.094320     24.000000
  0.117900  0.094320  0.094320     24.000000
  0.106110  0.106110  0.094320     24.000000
  0.117900  0.106110  0.094320     48.000000
  0.117900  0.117900  0.094320     24.000000
  0.106110  0.106110  0.106110      8.000000
  0.117900  0.106110  0.106110     24.000000
  0.117900  0.117900  0.106110     24.000000
  0.117900  0.117900  0.117900      8.000000
 


--------------------------------------------------------------------------------------------------------




 Dimension of arrays:
   k-points           NKPTS =    286   k-points in BZ     NKDIM =    286   number of bands    NBANDS=     14
   number of dos      NEDOS =    301   number of ions     NIONS =      4
   non local maximal  LDIM  =      4   non local SUM 2l+1 LMDIM =      8
   total plane-waves  NPLWV =  13824
   max r-space proj   IRMAX =   2940   max aug-charges    IRDMAX=  10406
   dimension x,y,z NGX =    24 NGY =   24 NGZ =   24
   dimension x,y,z NGXF=    48 NGYF=   48 NGZF=   48
   support grid    NGXF=    48 NGYF=   48 NGZF=   48
   ions per type =               4
   NGX,Y,Z   is equivalent  to a cutoff of  10.64, 10.64, 10.64 a.u.
   NGXF,Y,Z  is equivalent  to a cutoff of  21.28, 21.28, 21.28 a.u.

 SYSTEM =  Al fcc relaxation                       
 POSCAR =  Al4                                     

 Startparameter for this run:
   NWRITE =      2    write-flag & timer
   PREC   = accura    normal or accurate (medium, high low for compatibility)
   ISTART =      0    job   : 0-new  1-cont  2-samecut
   ICHARG =      2    charge: 1-file 2-atom 10-const
   ISPIN  =      1    spin polarized calculation?
   LNONCOLLINEAR =      F non collinear calculations
   LSORBIT =      F    spin-orbit coupling
   INIWAV =      1    electr: 0-lowe 1-rand  2-diag
   LASPH  =      F    aspherical Exc in radial PAW
 Electronic Relaxation 1
   ENCUT  =  400.0 eV  29.40 Ry    5.42 a.u.   6.11  6.11  6.11*2*pi/ulx,y,z
   ENINI  =  400.0     initial cutoff
   ENAUG  =  291.1 eV  augmentation charge cutoff
   NELM   =     60;   NELMIN=  4; NELMDL= -5     # of ELM steps 
   EDIFF  = 0.1E-05   stopping-criterion for ELM
   LREAL  =      T    real-space projection
   NLSPLINE    = F    spline interpolate recip. space projectors
   LCOMPAT=      F    compatible to vasp.4.4
   GGA_COMPAT  = T    GGA compatible to vasp.4.4-vasp.4.6
   LMAXPAW     = -100 max onsite density
   LMAXMIX     =    2 max onsite mixed and CHGCAR
   VOSKOWN=      0    Vosko Wilk Nusair interpolation
   ROPT   =   -0.00025
 Ionic relaxation
   EDIFFG = 0.1E-04   stopping-criterion for IOM
   NSW    =    100    number of steps for IOM
   NBLOCK =      1;   KBLOCK =    100    inner block; outer block 
   IBRION =      2    ionic relax: 0-MD 1-quasi-New 2-CG
   NFREE  =      1    steps in history (QN), initial steepest desc. (CG)
   ISIF   =      4    stress and relaxation
   IWAVPR =     11    prediction:  0-non 1-charg 2-wave 3-comb
   ISYM   =      2    0-nonsym 1-usesym 2-fastsym
   LCORR  =      T    Harris-Foulkes like correction to forces

   POTIM  = 0.5000    time-step for ionic-motion
   TEIN   =    0.0    initial temperature
   TEBEG  =    0.0;   TEEND  =   0.0 temperature during run
   SMASS  =  -3.00    Nose mass-parameter (am)
   estimated Nose-frequenzy (Omega)   =  0.10E-29 period in steps = 0.13E+47 mass=  -0.321E-27a.u.
   SCALEE = 1.0000    scale energy and forces
   NPACO  =    256;   APACO  = 10.0  distance and # of slots for P.C.
   PSTRESS=    0.0 pullay stress

  Mass of Ions in am
   POMASS =  26.98
  Ionic Valenz
   ZVAL   =   3.00
  Atomic Wigner-Seitz radii
   RWIGS  =  -1.00
  virtual crystal weights 
   VCA    =   1.00
   NELECT =      12.0000    total number of electrons
   NUPDOWN=      -1.0000    fix difference up-down

 DOS related values:
   EMIN   =  10.00;   EMAX   =-10.00  energy-range for DOS
   EFERMI =   0.00;   METHOD = LEGACY      
   ISMEAR =     1;   SIGMA  =   0.20  broadening in eV -4-tet -1-fermi 0-gaus

 Electronic relaxation 2 (details)
   IALGO  =     68    algorithm
   LDIAG  =      T    sub-space diagonalisation (order eigenvalues)
   LSUBROT=      F    optimize rotation matrix (better conditioning)
   TURBO    =      0    0=normal 1=particle mesh
   IRESTART =      0    0=no restart 2=restart with 2 vectors
   NREBOOT  =      0    no. of reboots
   NMIN     =      0    reboot dimension
   EREF     =   0.00    reference energy to select bands
   IMIX   =      4    mixing-type and parameters
     AMIX     =   0.40;   BMIX     =  1.00
     AMIX_MAG =   1.60;   BMIX_MAG =  1.00
     AMIN     =   0.10
     WC   =   100.;   INIMIX=   1;  MIXPRE=   1;  MAXMIX= -45

 Intra band minimization:
   WEIMIN = 0.0010     energy-eigenvalue tresh-hold
   EBREAK =  0.18E-07  absolut break condition
   DEPER  =   0.30     relativ break condition  

   TIME   =   0.40     timestep for ELM

  volume/ion in A,a.u.               =      13.18        88.93
  Fermi-wavevector in a.u.,A,eV,Ry     =   0.999629  1.889025 13.595739  0.999259
  Thomas-Fermi vector in A             =   2.131932

 Write flags
   LWAVE        =      F    write WAVECAR
   LDOWNSAMPLE  =      F    k-point downsampling of WAVECAR
   LCHARG       =      F    write CHGCAR
   LVTOT        =      F    write LOCPOT, total local potential
   LVHAR        =      F    write LOCPOT, Hartree potential only
   LELF         =      F    write electronic localiz. function (ELF)
   LORBIT       =      0    0 simple, 1 ext, 2 COOP (PROOUT), +10 PAW based schemes


 Dipole corrections
   LMONO  =      F    monopole corrections only (constant potential shift)
   LDIPOL =      F    correct potential (dipole corrections)
   IDIPOL =      0    1-x, 2-y, 3-z, 4-all directions 
   EPSILON=  1.0000000 bulk dielectric constant

 Exchange correlation treatment:
   GGA     =    --    GGA type
   LEXCH   =     8    internal setting for exchange type
   LIBXC   =     F    Libxc                    
   VOSKOWN =     0    Vosko Wilk Nusair interpolation
   LHFCALC =     F    Hartree Fock is set to
   LHFONE  =     F    Hartree Fock one center treatment
   AEXX    =    0.0000 exact exchange contribution

 Linear response parameters
   LEPSILON=     F    determine dielectric tensor
   LRPA    =     F    only Hartree local field effects (RPA)
   LNABLA  =     F    use nabla operator in PAW spheres
   LVEL    =     F    velocity operator in full k-point grid
   CSHIFT  =0.1000    complex shift for real part using Kramers Kronig
   OMEGAMAX=  -1.0    maximum frequency
   DEG_THRESHOLD= 0.2000000E-02 threshold for treating states as degnerate
   RTIME   =   -0.100 relaxation time in fs
  (WPLASMAI=    0.000 imaginary part of plasma frequency in eV, 0.658/RTIME)
   DFIELD  = 0.0000000 0.0000000 0.0000000 field for delta impulse in time

  Optional k-point grid parameters
   LKPOINTS_OPT  =     F    use optional k-point grid
   KPOINTS_OPT_MODE=     1    mode for optional k-point grid

 Orbital magnetization related:
   ORBITALMAG=     F  switch on orbital magnetization
   LCHIMAG   =     F  perturbation theory with respect to B field
   DQ        =  0.001000  dq finite difference perturbation B field
   LLRAUG    =     F  two centre corrections for induced B field
   LBONE     =     F  B-component reconstruction in AE one-centre
   LVGVCALC  =     T  calculate vGv susceptibility
   LVGVAPPL  =     F  apply vGv susceptibility instead of pGv for G=0

 Random number generation:
   RANDOM_GENERATOR = DEFAULT
   PCG_SEED         = not used


--------------------------------------------------------------------------------------------------------


 conjugate gradient relaxation of ions
 charge density and potential will be updated during run
 non-spin polarized calculation
 RMM-DIIS sequential band-by-band and
  variant of blocked Davidson during initial phase
 perform sub-space diagonalisation
    before iterative eigenvector-optimisation
 modified Broyden-mixing scheme, WC =      100.0
 initial mixing is a Kerker type mixing with AMIX =  0.4000 and BMIX =      1.0000
 Hartree-type preconditioning will be used
 using additional bands            8
 real space projection scheme for non local part
 use partial core corrections
 calculate Harris-corrections to forces   (improved forces if not selfconsistent)
 use gradient corrections 
 use of overlap-Matrix (Vanderbilt PP)
 Methfessel and Paxton  Order N= 1 SIGMA  =   0.20


--------------------------------------------------------------------------------------------------------


  energy-cutoff  :      400.00
  volume of cell :       52.71
      direct lattice vectors                 reciprocal lattice vectors
     3.749410193  0.000000000  0.000000000     0.266708615  0.000000000 -0.000000000
    -0.000000000  3.749410193  0.000000000     0.000000000  0.266708615  0.000000000
     0.000000000  0.000000000  3.749410193    -0.000000000 -0.000000000  0.266708615

  length of vectors
     3.749410193  3.749410193  3.749410193     0.266708615  0.266708615  0.266708615



 k-points in units of 2pi/SCALE and weight: Automatic kpoint scheme                 
   0.00000000  0.00000000  0.00000000       0.000
   0.01179002  0.00000000  0.00000000       0.001
   0.02358003  0.00000000  0.00000000       0.001
   0.03537005  0.00000000  0.00000000       0.001
   0.04716007  0.00000000  0.00000000       0.001
   0.05895008  0.00000000  0.00000000       0.001
   0.07074010  0.00000000  0.00000000       0.001
   0.08253012  0.00000000  0.00000000       0.001
   0.09432013  0.00000000  0.00000000       0.001
   0.10611015  0.00000000  0.00000000       0.001
   0.11790016  0.00000000  0.00000000       0.001
   0.01179002  0.01179002  0.00000000       0.001
   0.02358003  0.01179002  0.00000000       0.003
   0.03537005  0.01179002  0.00000000       0.003
   0.04716007  0.01179002  0.00000000       0.003
   0.05895008  0.01179002  0.00000000       0.003
   0.07074010  0.01179002  0.00000000       0.003
   0.08253012  0.01179002  0.00000000       0.003
   0.09432013  0.01179002  0.00000000       0.003
   0.10611015  0.01179002  0.00000000       0.003
   0.11790016  0.01179002  0.00000000       0.003
   0.02358003  0.02358003  0.00000000       0.001
   0.03537005  0.02358003  0.00000000       0.003
   0.04716007  0.02358003  0.00000000       0.003
   0.05895008  0.02358003  0.00000000       0.003
   0.07074010  0.02358003  0.00000000       0.003
   0.08253012  0.02358003  0.00000000       0.003
   0.09432013  0.02358003  0.00000000       0.003
   0.10611015  0.02358003  0.00000000       0.003
   0.11790016  0.02358003  0.00000000       0.003
   0.03537005  0.03537005  0.00000000       0.001
   0.04716007  0.03537005  0.00000000       0.003
   0.05895008  0.03537005  0.00000000       0.003
   0.07074010  0.03537005  0.00000000       0.003
   0.08253012  0.03537005  0.00000000       0.003
   0.09432013  0.03537005  0.00000000       0.003
   0.10611015  0.03537005  0.00000000       0.003
   0.11790016  0.03537005  0.00000000       0.003
   0.04716007  0.04716007  0.00000000       0.001
   0.05895008  0.04716007  0.00000000       0.003
   0.07074010  0.04716007  0.00000000       0.003
   0.08253012  0.04716007  0.00000000       0.003
   0.09432013  0.04716007  0.00000000       0.003
   0.10611015  0.04716007  0.00000000       0.003
   0.11790016  0.04716007  0.00000000       0.003
   0.05895008  0.05895008  0.00000000       0.001
   0.07074010  0.05895008  0.00000000       0.003
   0.08253012  0.05895008  0.00000000       0.003
   0.09432013  0.05895008  0.00000000       0.003
   0.10611015  0.05895008  0.00000000       0.003
   0.11790016  0.05895008  0.00000000       0.003
   0.07074010  0.07074010  0.00000000       0.001
   0.08253012  0.07074010  0.00000000       0.003
   0.09432013  0.07074010  0.00000000       0.003
   0.10611015  0.07074010  0.00000000       0.003
   0.11790016  0.07074010  0.00000000       0.003
   0.08253012  0.08253012  0.00000000       0.001
   0.09432013  0.08253012  0.00000000       0.003
   0.10611015  0.08253012  0.00000000       0.003
   0.11790016  0.08253012  0.00000000       0.003
   0.09432013  0.09432013  0.00000000       0.001
   0.10611015  0.09432013  0.00000000       0.003
   0.11790016  0.09432013  0.00000000       0.003
   0.10611015  0.10611015  0.00000000       0.001
   0.11790016  0.10611015  0.00000000       0.003
   0.11790016  0.11790016  0.00000000       0.001
   0.01179002  0.01179002  0.01179002       0.001
   0.02358003  0.01179002  0.01179002       0.003
   0.03537005  0.01179002  0.01179002       0.003
   0.04716007  0.01179002  0.01179002       0.003
   0.05895008  0.01179002  0.01179002       0.003
   0.07074010  0.01179002  0.01179002       0.003
   0.08253012  0.01179002  0.01179002       0.003
   0.09432013  0.01179002  0.01179002       0.003
   0.10611015  0.01179002  0.01179002       0.003
   0.11790016  0.01179002  0.01179002       0.003
   0.02358003  0.02358003  0.01179002       0.003
   0.03537005  0.02358003  0.01179002       0.005
   0.04716007  0.02358003  0.01179002       0.005
   0.05895008  0.02358003  0.01179002       0.005
   0.07074010  0.02358003  0.01179002       0.005
   0.08253012  0.02358003  0.01179002       0.005
   0.09432013  0.02358003  0.01179002       0.005
   0.10611015  0.02358003  0.01179002       0.005
   0.11790016  0.02358003  0.01179002       0.005
   0.03537005  0.03537005  0.01179002       0.003
   0.04716007  0.03537005  0.01179002       0.005
   0.05895008  0.03537005  0.01179002       0.005
   0.07074010  0.03537005  0.01179002       0.005
   0.08253012  0.03537005  0.01179002       0.005
   0.09432013  0.03537005  0.01179002       0.005
   0.10611015  0.03537005  0.01179002       0.005
   0.11790016  0.03537005  0.01179002       0.005
   0.04716007  0.04716007  0.01179002       0.003
   0.05895008  0.04716007  0.01179002       0.005
   0.07074010  0.04716007  0.01179002       0.005
   0.08253012  0.04716007  0.01179002       0.005
   0.09432013  0.04716007  0.01179002       0.005
   0.10611015  0.04716007  0.01179002       0.005
   0.11790016  0.04716007  0.01179002       0.005
   0.05895008  0.05895008  0.01179002       0.003
   0.07074010  0.05895008  0.01179002       0.005
   0.08253012  0.05895008  0.01179002       0.005
   0.09432013  0.05895008  0.01179002       0.005
   0.10611015  0.05895008  0.01179002       0.005
   0.11790016  0.05895008  0.01179002       0.005
   0.07074010  0.07074010  0.01179002       0.003
   0.08253012  0.07074010  0.01179002       0.005
   0.09432013  0.07074010  0.01179002       0.005
   0.10611015  0.07074010  0.01179002       0.005
   0.11790016  0.07074010  0.01179002       0.005
   0.08253012  0.08253012  0.01179002       0.003
   0.09432013  0.08253012  0.01179002       0.005
   0.10611015  0.08253012  0.01179002       0.005
   0.11790016  0.08253012  0.01179002       0.005
   0.09432013  0.09432013  0.01179002       0.003
   0.10611015  0.09432013  0.01179002       0.005
   0.11790016  0.09432013  0.01179002       0.005
   0.10611015  0.10611015  0.01179002       0.003
   0.11790016  0.10611015  0.01179002       0.005
   0.11790016  0.11790016  0.01179002       0.003
   0.02358003  0.02358003  0.02358003       0.001
   0.03537005  0.02358003  0.02358003       0.003
   0.04716007  0.02358003  0.02358003       0.003
   0.05895008  0.02358003  0.02358003       0.003
   0.07074010  0.02358003  0.02358003       0.003
   0.08253012  0.02358003  0.02358003       0.003
   0.09432013  0.02358003  0.02358003       0.003
   0.10611015  0.02358003  0.02358003       0.003
   0.11790016  0.02358003  0.02358003       0.003
   0.03537005  0.03537005  0.02358003       0.003
   0.04716007  0.03537005  0.02358003       0.005
   0.05895008  0.03537005  0.02358003       0.005
   0.07074010  0.03537005  0.02358003       0.005
   0.08253012  0.03537005  0.02358003       0.005
   0.09432013  0.03537005  0.02358003       0.005
   0.10611015  0.03537005  0.02358003       0.005
   0.11790016  0.03537005  0.02358003       0.005
   0.04716007  0.04716007  0.02358003       0.003
   0.05895008  0.04716007  0.02358003       0.005
   0.07074010  0.04716007  0.02358003       0.005
   0.08253012  0.04716007  0.02358003       0.005
   0.09432013  0.04716007  0.02358003       0.005
   0.10611015  0.04716007  0.02358003       0.005
   0.11790016  0.04716007  0.02358003       0.005
   0.05895008  0.05895008  0.02358003       0.003
   0.07074010  0.05895008  0.02358003       0.005
   0.08253012  0.05895008  0.02358003       0.005
   0.09432013  0.05895008  0.02358003       0.005
   0.10611015  0.05895008  0.02358003       0.005
   0.11790016  0.05895008  0.02358003       0.005
   0.07074010  0.07074010  0.02358003       0.003
   0.08253012  0.07074010  0.02358003       0.005
   0.09432013  0.07074010  0.02358003       0.005
   0.10611015  0.07074010  0.02358003       0.005
   0.11790016  0.07074010  0.02358003       0.005
   0.08253012  0.08253012  0.02358003       0.003
   0.09432013  0.08253012  0.02358003       0.005
   0.10611015  0.08253012  0.02358003       0.005
   0.11790016  0.08253012  0.02358003       0.005
   0.09432013  0.09432013  0.02358003       0.003
   0.10611015  0.09432013  0.02358003       0.005
   0.11790016  0.09432013  0.02358003       0.005
   0.10611015  0.10611015  0.02358003       0.003
   0.11790016  0.10611015  0.02358003       0.005
   0.11790016  0.11790016  0.02358003       0.003
   0.03537005  0.03537005  0.03537005       0.001
   0.04716007  0.03537005  0.03537005       0.003
   0.05895008  0.03537005  0.03537005       0.003
   0.07074010  0.03537005  0.03537005       0.003
   0.08253012  0.03537005  0.03537005       0.003
   0.09432013  0.03537005  0.03537005       0.003
   0.10611015  0.03537005  0.03537005       0.003
   0.11790016  0.03537005  0.03537005       0.003
   0.04716007  0.04716007  0.03537005       0.003
   0.05895008  0.04716007  0.03537005       0.005
   0.07074010  0.04716007  0.03537005       0.005
   0.08253012  0.04716007  0.03537005       0.005
   0.09432013  0.04716007  0.03537005       0.005
   0.10611015  0.04716007  0.03537005       0.005
   0.11790016  0.04716007  0.03537005       0.005
   0.05895008  0.05895008  0.03537005       0.003
   0.07074010  0.05895008  0.03537005       0.005
   0.08253012  0.05895008  0.03537005       0.005
   0.09432013  0.05895008  0.03537005       0.005
   0.10611015  0.05895008  0.03537005       0.005
   0.11790016  0.05895008  0.03537005       0.005
   0.07074010  0.07074010  0.03537005       0.003
   0.08253012  0.07074010  0.03537005       0.005
   0.09432013  0.07074010  0.03537005       0.005
   0.10611015  0.07074010  0.03537005       0.005
   0.11790016  0.07074010  0.03537005       0.005
   0.08253012  0.08253012  0.03537005       0.003
   0.09432013  0.08253012  0.03537005       0.005
   0.10611015  0.08253012  0.03537005       0.005
   0.11790016  0.08253012  0.03537005       0.005
   0.09432013  0.09432013  0.03537005       0.003
   0.10611015  0.09432013  0.03537005       0.005
   0.11790016  0.09432013  0.03537005       0.005
   0.10611015  0.10611015  0.03537005       0.003
   0.11790016  0.10611015  0.03537005       0.005
   0.11790016  0.11790016  0.03537005       0.003
   0.04716007  0.04716007  0.04716007       0.001
   0.05895008  0.04716007  0.04716007       0.003
   0.07074010  0.04716007  0.04716007       0.003
   0.08253012  0.04716007  0.04716007       0.003
   0.09432013  0.04716007  0.04716007       0.003
   0.10611015  0.04716007  0.04716007       0.003
   0.11790016  0.04716007  0.04716007       0.003
   0.05895008  0.05895008  0.04716007       0.003
   0.07074010  0.05895008  0.04716007       0.005
   0.08253012  0.05895008  0.04716007       0.005
   0.09432013  0.05895008  0.04716007       0.005
   0.10611015  0.05895008  0.04716007       0.005
   0.11790016  0.05895008  0.04716007       0.005
   0.07074010  0.07074010  0.04716007       0.003
   0.08253012  0.07074010  0.04716007       0.005
   0.09432013  0.07074010  0.04716007       0.005
   0.10611015  0.07074010  0.04716007       0.005
   0.11790016  0.07074010  0.04716007       0.005
   0.08253012  0.08253012  0.04716007       0.003
   0.09432013  0.08253012  0.04716007       0.005
   0.10611015  0.08253012  0.04716007       0.005
   0.11790016  0.08253012  0.04716007       0.005
   0.09432013  0.09432013  0.04716007       0.003
   0.10611015  0.09432013  0.04716007       0.005
   0.11790016  0.09432013  0.04716007       0.005
   0.10611015  0.10611015  0.04716007       0.003
   0.11790016  0.10611015  0.04716007       0.005
   0.11790016  0.11790016  0.04716007       0.003
   0.05895008  0.05895008  0.05895008       0.001
   0.07074010  0.05895008  0.05895008       0.003
   0.08253012  0.05895008  0.05895008       0.003
   0.09432013  0.05895008  0.05895008       0.003
   0.10611015  0.05895008  0.05895008       0.003
   0.11790016  0.05895008  0.05895008       0.003
   0.07074010  0.07074010  0.05895008       0.003
   0.08253012  0.07074010  0.05895008       0.005
   0.09432013  0.07074010  0.05895008       0.005
   0.10611015  0.07074010  0.05895008       0.005
   0.11790016  0.07074010  0.05895008       0.005
   0.08253012  0.08253012  0.05895008       0.003
   0.09432013  0.08253012  0.05895008       0.005
   0.10611015  0.08253012  0.05895008       0.005
   0.11790016  0.08253012  0.05895008       0.005
   0.09432013  0.09432013  0.05895008       0.003
   0.10611015  0.09432013  0.05895008       0.005
   0.11790016  0.09432013  0.05895008       0.005
   0.10611015  0.10611015  0.05895008       0.003
   0.11790016  0.10611015  0.05895008       0.005
   0.11790016  0.11790016  0.05895008       0.003
   0.07074010  0.07074010  0.07074010       0.001
   0.08253012  0.07074010  0.07074010       0.003
   0.09432013  0.07074010  0.07074010       0.003
   0.10611015  0.07074010  0.07074010       0.003
   0.11790016  0.07074010  0.07074010       0.003
   0.08253012  0.08253012  0.07074010       0.003
   0.09432013  0.08253012  0.07074010       0.005
   0.10611015  0.08253012  0.07074010       0.005
   0.11790016  0.08253012  0.07074010       0.005
   0.09432013  0.09432013  0.07074010       0.003
   0.10611015  0.09432013  0.07074010       0.005
   0.11790016  0.09432013  0.07074010       0.005
   0.10611015  0.10611015  0.07074010       0.003
   0.11790016  0.10611015  0.07074010       0.005
   0.11790016  0.11790016  0.07074010       0.003
   0.08253012  0.08253012  0.08253012       0.001
   0.09432013  0.08253012  0.08253012       0.003
   0.10611015  0.08253012  0.08253012       0.003
   0.11790016  0.08253012  0.08253012       0.003
   0.09432013  0.09432013  0.08253012       0.003
   0.10611015  0.09432013  0.08253012       0.005
   0.11790016  0.09432013  0.08253012       0.005
   0.10611015  0.10611015  0.08253012       0.003
   0.11790016  0.10611015  0.08253012       0.005
   0.11790016  0.11790016  0.08253012       0.003
   0.09432013  0.09432013  0.09432013       0.001
   0.10611015  0.09432013  0.09432013       0.003
   0.11790016  0.09432013  0.09432013       0.003
   0.10611015  0.10611015  0.09432013       0.003
   0.11790016  0.10611015  0.09432013       0.005
   0.11790016  0.11790016  0.09432013       0.003
   0.10611015  0.10611015  0.10611015       0.001
   0.11790016  0.10611015  0.10611015       0.003
   0.11790016  0.11790016  0.10611015       0.003
   0.11790016  0.11790016  0.11790016       0.001

 k-points in reciprocal lattice and weights: Automatic kpoint scheme                 
   0.00000000  0.00000000  0.00000000       0.000
   0.04761905  0.00000000  0.00000000       0.001
   0.09523810  0.00000000  0.00000000       0.001
   0.14285714  0.00000000  0.00000000       0.001
   0.19047619  0.00000000  0.00000000       0.001
   0.23809524  0.00000000  0.00000000       0.001
   0.28571429  0.00000000  0.00000000       0.001
   0.33333333  0.00000000  0.00000000       0.001
   0.38095238  0.00000000  0.00000000       0.001
   0.42857143  0.00000000  0.00000000       0.001
   0.47619048  0.00000000  0.00000000       0.001
   0.04761905  0.04761905  0.00000000       0.001
   0.09523810  0.04761905  0.00000000       0.003
   0.14285714  0.04761905  0.00000000       0.003
   0.19047619  0.04761905  0.00000000       0.003
   0.23809524  0.04761905  0.00000000       0.003
   0.28571429  0.04761905  0.00000000       0.003
   0.33333333  0.04761905  0.00000000       0.003
   0.38095238  0.04761905  0.00000000       0.003
   0.42857143  0.04761905  0.00000000       0.003
   0.47619048  0.04761905  0.00000000       0.003
   0.09523810  0.09523810  0.00000000       0.001
   0.14285714  0.09523810  0.00000000       0.003
   0.19047619  0.09523810  0.00000000       0.003
   0.23809524  0.09523810  0.00000000       0.003
   0.28571429  0.09523810  0.00000000       0.003
   0.33333333  0.09523810  0.00000000       0.003
   0.38095238  0.09523810  0.00000000       0.003
   0.42857143  0.09523810  0.00000000       0.003
   0.47619048  0.09523810  0.00000000       0.003
   0.14285714  0.14285714  0.00000000       0.001
   0.19047619  0.14285714  0.00000000       0.003
   0.23809524  0.14285714  0.00000000       0.003
   0.28571429  0.14285714  0.00000000       0.003
   0.33333333  0.14285714  0.00000000       0.003
   0.38095238  0.14285714  0.00000000       0.003
   0.42857143  0.14285714  0.00000000       0.003
   0.47619048  0.14285714  0.00000000       0.003
   0.19047619  0.19047619  0.00000000       0.001
   0.23809524  0.19047619  0.00000000       0.003
   0.28571429  0.19047619  0.00000000       0.003
   0.33333333  0.19047619  0.00000000       0.003
   0.38095238  0.19047619  0.00000000       0.003
   0.42857143  0.19047619  0.00000000       0.003
   0.47619048  0.19047619  0.00000000       0.003
   0.23809524  0.23809524  0.00000000       0.001
   0.28571429  0.23809524  0.00000000       0.003
   0.33333333  0.23809524  0.00000000       0.003
   0.38095238  0.23809524  0.00000000       0.003
   0.42857143  0.23809524  0.00000000       0.003
   0.47619048  0.23809524  0.00000000       0.003
   0.28571429  0.28571429  0.00000000       0.001
   0.33333333  0.28571429  0.00000000       0.003
   0.38095238  0.28571429  0.00000000       0.003
   0.42857143  0.28571429  0.00000000       0.003
   0.47619048  0.28571429  0.00000000       0.003
   0.33333333  0.33333333  0.00000000       0.001
   0.38095238  0.33333333  0.00000000       0.003
   0.42857143  0.33333333  0.00000000       0.003
   0.47619048  0.33333333  0.00000000       0.003
   0.38095238  0.38095238  0.00000000       0.001
   0.42857143  0.38095238  0.00000000       0.003
   0.47619048  0.38095238  0.00000000       0.003
   0.42857143  0.42857143  0.00000000       0.001
   0.47619048  0.42857143  0.00000000       0.003
   0.47619048  0.47619048  0.00000000       0.001
   0.04761905  0.04761905  0.04761905       0.001
   0.09523810  0.04761905  0.04761905       0.003
   0.14285714  0.04761905  0.04761905       0.003
   0.19047619  0.04761905  0.04761905       0.003
   0.23809524  0.04761905  0.04761905       0.003
   0.28571429  0.04761905  0.04761905       0.003
   0.33333333  0.04761905  0.04761905       0.003
   0.38095238  0.04761905  0.04761905       0.003
   0.42857143  0.04761905  0.04761905       0.003
   0.47619048  0.04761905  0.04761905       0.003
   0.09523810  0.09523810  0.04761905       0.003
   0.14285714  0.09523810  0.04761905       0.005
   0.19047619  0.09523810  0.04761905       0.005
   0.23809524  0.09523810  0.04761905       0.005
   0.28571429  0.09523810  0.04761905       0.005
   0.33333333  0.09523810  0.04761905       0.005
   0.38095238  0.09523810  0.04761905       0.005
   0.42857143  0.09523810  0.04761905       0.005
   0.47619048  0.09523810  0.04761905       0.005
   0.14285714  0.14285714  0.04761905       0.003
   0.19047619  0.14285714  0.04761905       0.005
   0.23809524  0.14285714  0.04761905       0.005
   0.28571429  0.14285714  0.04761905       0.005
   0.33333333  0.14285714  0.04761905       0.005
   0.38095238  0.14285714  0.04761905       0.005
   0.42857143  0.14285714  0.04761905       0.005
   0.47619048  0.14285714  0.04761905       0.005
   0.19047619  0.19047619  0.04761905       0.003
   0.23809524  0.19047619  0.04761905       0.005
   0.28571429  0.19047619  0.04761905       0.005
   0.33333333  0.19047619  0.04761905       0.005
   0.38095238  0.19047619  0.04761905       0.005
   0.42857143  0.19047619  0.04761905       0.005
   0.47619048  0.19047619  0.04761905       0.005
   0.23809524  0.23809524  0.04761905       0.003
   0.28571429  0.23809524  0.04761905       0.005
   0.33333333  0.23809524  0.04761905       0.005
   0.38095238  0.23809524  0.04761905       0.005
   0.42857143  0.23809524  0.04761905       0.005
   0.47619048  0.23809524  0.04761905       0.005
   0.28571429  0.28571429  0.04761905       0.003
   0.33333333  0.28571429  0.04761905       0.005
   0.38095238  0.28571429  0.04761905       0.005
   0.42857143  0.28571429  0.04761905       0.005
   0.47619048  0.28571429  0.04761905       0.005
   0.33333333  0.33333333  0.04761905       0.003
   0.38095238  0.33333333  0.04761905       0.005
   0.42857143  0.33333333  0.04761905       0.005
   0.47619048  0.33333333  0.04761905       0.005
   0.38095238  0.38095238  0.04761905       0.003
   0.42857143  0.38095238  0.04761905       0.005
   0.47619048  0.38095238  0.04761905       0.005
   0.42857143  0.42857143  0.04761905       0.003
   0.47619048  0.42857143  0.04761905       0.005
   0.47619048  0.47619048  0.04761905       0.003
   0.09523810  0.09523810  0.09523810       0.001
   0.14285714  0.09523810  0.09523810       0.003
   0.19047619  0.09523810  0.09523810       0.003
   0.23809524  0.09523810  0.09523810       0.003
   0.28571429  0.09523810  0.09523810       0.003
   0.33333333  0.09523810  0.09523810       0.003
   0.38095238  0.09523810  0.09523810       0.003
   0.42857143  0.09523810  0.09523810       0.003
   0.47619048  0.09523810  0.09523810       0.003
   0.14285714  0.14285714  0.09523810       0.003
   0.19047619  0.14285714  0.09523810       0.005
   0.23809524  0.14285714  0.09523810       0.005
   0.28571429  0.14285714  0.09523810       0.005
   0.33333333  0.14285714  0.09523810       0.005
   0.38095238  0.14285714  0.09523810       0.005
   0.42857143  0.14285714  0.09523810       0.005
   0.47619048  0.14285714  0.09523810       0.005
   0.19047619  0.19047619  0.09523810       0.003
   0.23809524  0.19047619  0.09523810       0.005
   0.28571429  0.19047619  0.09523810       0.005
   0.33333333  0.19047619  0.09523810       0.005
   0.38095238  0.19047619  0.09523810       0.005
   0.42857143  0.19047619  0.09523810       0.005
   0.47619048  0.19047619  0.09523810       0.005
   0.23809524  0.23809524  0.09523810       0.003
   0.28571429  0.23809524  0.09523810       0.005
   0.33333333  0.23809524  0.09523810       0.005
   0.38095238  0.23809524  0.09523810       0.005
   0.42857143  0.23809524  0.09523810       0.005
   0.47619048  0.23809524  0.09523810       0.005
   0.28571429  0.28571429  0.09523810       0.003
   0.33333333  0.28571429  0.09523810       0.005
   0.38095238  0.28571429  0.09523810       0.005
   0.42857143  0.28571429  0.09523810       0.005
   0.47619048  0.28571429  0.09523810       0.005
   0.33333333  0.33333333  0.09523810       0.003
   0.38095238  0.33333333  0.09523810       0.005
   0.42857143  0.33333333  0.09523810       0.005
   0.47619048  0.33333333  0.09523810       0.005
   0.38095238  0.38095238  0.09523810       0.003
   0.42857143  0.38095238  0.09523810       0.005
   0.47619048  0.38095238  0.09523810       0.005
   0.42857143  0.42857143  0.09523810       0.003
   0.47619048  0.42857143  0.09523810       0.005
   0.47619048  0.47619048  0.09523810       0.003
   0.14285714  0.14285714  0.14285714       0.001
   0.19047619  0.14285714  0.14285714       0.003
   0.23809524  0.14285714  0.14285714       0.003
   0.28571429  0.14285714  0.14285714       0.003
   0.33333333  0.14285714  0.14285714       0.003
   0.38095238  0.14285714  0.14285714       0.003
   0.42857143  0.14285714  0.14285714       0.003
   0.47619048  0.14285714  0.14285714       0.003
   0.19047619  0.19047619  0.14285714       0.003
   0.23809524  0.19047619  0.14285714       0.005
   0.28571429  0.19047619  0.14285714       0.005
   0.33333333  0.19047619  0.14285714       0.005
   0.38095238  0.19047619  0.14285714       0.005
   0.42857143  0.19047619  0.14285714       0.005
   0.47619048  0.19047619  0.14285714       0.005
   0.23809524  0.23809524  0.14285714       0.003
   0.28571429  0.23809524  0.14285714       0.005
   0.33333333  0.23809524  0.14285714       0.005
   0.38095238  0.23809524  0.14285714       0.005
   0.42857143  0.23809524  0.14285714       0.005
   0.47619048  0.23809524  0.14285714       0.005
   0.28571429  0.28571429  0.14285714       0.003
   0.33333333  0.28571429  0.14285714       0.005
   0.38095238  0.28571429  0.14285714       0.005
   0.42857143  0.28571429  0.14285714       0.005
   0.47619048  0.28571429  0.14285714       0.005
   0.33333333  0.33333333  0.14285714       0.003
   0.38095238  0.33333333  0.14285714       0.005
   0.42857143  0.33333333  0.14285714       0.005
   0.47619048  0.33333333  0.14285714       0.005
   0.38095238  0.38095238  0.14285714       0.003
   0.42857143  0.38095238  0.14285714       0.005
   0.47619048  0.38095238  0.14285714       0.005
   0.42857143  0.42857143  0.14285714       0.003
   0.47619048  0.42857143  0.14285714       0.005
   0.47619048  0.47619048  0.14285714       0.003
   0.19047619  0.19047619  0.19047619       0.001
   0.23809524  0.19047619  0.19047619       0.003
   0.28571429  0.19047619  0.19047619       0.003
   0.33333333  0.19047619  0.19047619       0.003
   0.38095238  0.19047619  0.19047619       0.003
   0.42857143  0.19047619  0.19047619       0.003
   0.47619048  0.19047619  0.19047619       0.003
   0.23809524  0.23809524  0.19047619       0.003
   0.28571429  0.23809524  0.19047619       0.005
   0.33333333  0.23809524  0.19047619       0.005
   0.38095238  0.23809524  0.19047619       0.005
   0.42857143  0.23809524  0.19047619       0.005
   0.47619048  0.23809524  0.19047619       0.005
   0.28571429  0.28571429  0.19047619       0.003
   0.33333333  0.28571429  0.19047619       0.005
   0.38095238  0.28571429  0.19047619       0.005
   0.42857143  0.28571429  0.19047619       0.005
   0.47619048  0.28571429  0.19047619       0.005
   0.33333333  0.33333333  0.19047619       0.003
   0.38095238  0.33333333  0.19047619       0.005
   0.42857143  0.33333333  0.19047619       0.005
   0.47619048  0.33333333  0.19047619       0.005
   0.38095238  0.38095238  0.19047619       0.003
   0.42857143  0.38095238  0.19047619       0.005
   0.47619048  0.38095238  0.19047619       0.005
   0.42857143  0.42857143  0.19047619       0.003
   0.47619048  0.42857143  0.19047619       0.005
   0.47619048  0.47619048  0.19047619       0.003
   0.23809524  0.23809524  0.23809524       0.001
   0.28571429  0.23809524  0.23809524       0.003
   0.33333333  0.23809524  0.23809524       0.003
   0.38095238  0.23809524  0.23809524       0.003
   0.42857143  0.23809524  0.23809524       0.003
   0.47619048  0.23809524  0.23809524       0.003
   0.28571429  0.28571429  0.23809524       0.003
   0.33333333  0.28571429  0.23809524       0.005
   0.38095238  0.28571429  0.23809524       0.005
   0.42857143  0.28571429  0.23809524       0.005
   0.47619048  0.28571429  0.23809524       0.005
   0.33333333  0.33333333  0.23809524       0.003
   0.38095238  0.33333333  0.23809524       0.005
   0.42857143  0.33333333  0.23809524       0.005
   0.47619048  0.33333333  0.23809524       0.005
   0.38095238  0.38095238  0.23809524       0.003
   0.42857143  0.38095238  0.23809524       0.005
   0.47619048  0.38095238  0.23809524       0.005
   0.42857143  0.42857143  0.23809524       0.003
   0.47619048  0.42857143  0.23809524       0.005
   0.47619048  0.47619048  0.23809524       0.003
   0.28571429  0.28571429  0.28571429       0.001
   0.33333333  0.28571429  0.28571429       0.003
   0.38095238  0.28571429  0.28571429       0.003
   0.42857143  0.28571429  0.28571429       0.003
   0.47619048  0.28571429  0.28571429       0.003
   0.33333333  0.33333333  0.28571429       0.003
   0.38095238  0.33333333  0.28571429       0.005
   0.42857143  0.33333333  0.28571429       0.005
   0.47619048  0.33333333  0.28571429       0.005
   0.38095238  0.38095238  0.28571429       0.003
   0.42857143  0.38095238  0.28571429       0.005
   0.47619048  0.38095238  0.28571429       0.005
   0.42857143  0.42857143  0.28571429       0.003
   0.47619048  0.42857143  0.28571429       0.005
   0.47619048  0.47619048  0.28571429       0.003
   0.33333333  0.33333333  0.33333333       0.001
   0.38095238  0.33333333  0.33333333       0.003
   0.42857143  0.33333333  0.33333333       0.003
   0.47619048  0.33333333  0.33333333       0.003
   0.38095238  0.38095238  0.33333333       0.003
   0.42857143  0.38095238  0.33333333       0.005
   0.47619048  0.38095238  0.33333333       0.005
   0.42857143  0.42857143  0.33333333       0.003
   0.47619048  0.42857143  0.33333333       0.005
   0.47619048  0.47619048  0.33333333       0.003
   0.38095238  0.38095238  0.38095238       0.001
   0.42857143  0.38095238  0.38095238       0.003
   0.47619048  0.38095238  0.38095238       0.003
   0.42857143  0.42857143  0.38095238       0.003
   0.47619048  0.42857143  0.38095238       0.005
   0.47619048  0.47619048  0.38095238       0.003
   0.42857143  0.42857143  0.42857143       0.001
   0.47619048  0.42857143  0.42857143       0.003
   0.47619048  0.47619048  0.42857143       0.003
   0.47619048  0.47619048  0.47619048       0.001

 position of ions in fractional coordinates (direct lattice) 
   0.00000000  0.00000000  0.00000000
   0.00000000  0.50000000  0.50000000
   0.50000000  0.00000000  0.50000000
   0.50000000  0.50000000  0.00000000

 position of ions in cartesian coordinates  (Angst):
   0.00000000  0.00000000  0.00000000
  -0.00000000  1.87470510  1.87470510
   1.87470510  0.00000000  1.87470510
   1.87470510  1.87470510  0.00000000



--------------------------------------------------------------------------------------------------------


 k-point   1 :   0.0000 0.0000 0.0000  plane waves:     949
 k-point   2 :   0.0476 0.0000 0.0000  plane waves:     945
 k-point   3 :   0.0952 0.0000 0.0000  plane waves:     957
 k-point   4 :   0.1429 0.0000 0.0000  plane waves:     964
 k-point   5 :   0.1905 0.0000 0.0000  plane waves:     960
 k-point   6 :   0.2381 0.0000 0.0000  plane waves:     956
 k-point   7 :   0.2857 0.0000 0.0000  plane waves:     956
 k-point   8 :   0.3333 0.0000 0.0000  plane waves:     956
 k-point   9 :   0.3810 0.0000 0.0000  plane waves:     960
 k-point  10 :   0.4286 0.0000 0.0000  plane waves:     952
 k-point  11 :   0.4762 0.0000 0.0000  plane waves:     952
 k-point  12 :   0.0476 0.0476 0.0000  plane waves:     953
 k-point  13 :   0.0952 0.0476 0.0000  plane waves:     963
 k-point  14 :   0.1429 0.0476 0.0000  plane waves:     963
 k-point  15 :   0.1905 0.0476 0.0000  plane waves:     961
 k-point  16 :   0.2381 0.0476 0.0000  plane waves:     954
 k-point  17 :   0.2857 0.0476 0.0000  plane waves:     953
 k-point  18 :   0.3333 0.0476 0.0000  plane waves:     960
 k-point  19 :   0.3810 0.0476 0.0000  plane waves:     958
 k-point  20 :   0.4286 0.0476 0.0000  plane waves:     955
 k-point  21 :   0.4762 0.0476 0.0000  plane waves:     952
 k-point  22 :   0.0952 0.0952 0.0000  plane waves:     959
 k-point  23 :   0.1429 0.0952 0.0000  plane waves:     960
 k-point  24 :   0.1905 0.0952 0.0000  plane waves:     957
 k-point  25 :   0.2381 0.0952 0.0000  plane waves:     951
 k-point  26 :   0.2857 0.0952 0.0000  plane waves:     953
 k-point  27 :   0.3333 0.0952 0.0000  plane waves:     956
 k-point  28 :   0.3810 0.0952 0.0000  plane waves:     957
 k-point  29 :   0.4286 0.0952 0.0000  plane waves:     956
 k-point  30 :   0.4762 0.0952 0.0000  plane waves:     951
 k-point  31 :   0.1429 0.1429 0.0000  plane waves:     957
 k-point  32 :   0.1905 0.1429 0.0000  plane waves:     952
 k-point  33 :   0.2381 0.1429 0.0000  plane waves:     954
 k-point  34 :   0.2857 0.1429 0.0000  plane waves:     954
 k-point  35 :   0.3333 0.1429 0.0000  plane waves:     948
 k-point  36 :   0.3810 0.1429 0.0000  plane waves:     956
 k-point  37 :   0.4286 0.1429 0.0000  plane waves:     951
 k-point  38 :   0.4762 0.1429 0.0000  plane waves:     951
 k-point  39 :   0.1905 0.1905 0.0000  plane waves:     957
 k-point  40 :   0.2381 0.1905 0.0000  plane waves:     953
 k-point  41 :   0.2857 0.1905 0.0000  plane waves:     955
 k-point  42 :   0.3333 0.1905 0.0000  plane waves:     952
 k-point  43 :   0.3810 0.1905 0.0000  plane waves:     954
 k-point  44 :   0.4286 0.1905 0.0000  plane waves:     952
 k-point  45 :   0.4762 0.1905 0.0000  plane waves:     954
 k-point  46 :   0.2381 0.2381 0.0000  plane waves:     959
 k-point  47 :   0.2857 0.2381 0.0000  plane waves:     959
 k-point  48 :   0.3333 0.2381 0.0000  plane waves:     956
 k-point  49 :   0.3810 0.2381 0.0000  plane waves:     954
 k-point  50 :   0.4286 0.2381 0.0000  plane waves:     953
 k-point  51 :   0.4762 0.2381 0.0000  plane waves:     948
 k-point  52 :   0.2857 0.2857 0.0000  plane waves:     959
 k-point  53 :   0.3333 0.2857 0.0000  plane waves:     958
 k-point  54 :   0.3810 0.2857 0.0000  plane waves:     955
 k-point  55 :   0.4286 0.2857 0.0000  plane waves:     957
 k-point  56 :   0.4762 0.2857 0.0000  plane waves:     955
 k-point  57 :   0.3333 0.3333 0.0000  plane waves:     946
 k-point  58 :   0.3810 0.3333 0.0000  plane waves:     951
 k-point  59 :   0.4286 0.3333 0.0000  plane waves:     953
 k-point  60 :   0.4762 0.3333 0.0000  plane waves:     955
 k-point  61 :   0.3810 0.3810 0.0000  plane waves:     952
 k-point  62 :   0.4286 0.3810 0.0000  plane waves:     957
 k-point  63 :   0.4762 0.3810 0.0000  plane waves:     956
 k-point  64 :   0.4286 0.4286 0.0000  plane waves:     960
 k-point  65 :   0.4762 0.4286 0.0000  plane waves:     967
 k-point  66 :   0.4762 0.4762 0.0000  plane waves:     970
 k-point  67 :   0.0476 0.0476 0.0476  plane waves:     946
[...]

 k-point   265 :       0.4762    0.4286    0.2857
  band No.  band energies     occupation 
      1       2.8297      2.00000
      2       3.3040      2.00000
      3       4.2387      2.00000
      4       4.6930      2.00000
      5       7.1811      2.00000
      6       7.6274      2.00000
      7       8.5384      2.00000
      8       8.9972      2.00000
      9      18.2830      0.00000
     10      18.6823      0.00000
     11      19.5447      0.00000
     12      19.9982      0.00000
     13      21.0311      0.00000
     14      21.2397      0.00000

 k-point   266 :       0.4762    0.4762    0.2857
  band No.  band energies     occupation 
      1       3.2589      2.00000
      2       3.7294      2.00000
      3       3.7294      2.00000
      4       4.1941      2.00000
      5       7.5839      2.00000
      6       8.0380      2.00000
      7       8.0380      2.00000
      8       8.4954      2.00000
      9      18.6899      0.00000
     10      19.1120      0.00000
     11      19.1120      0.00000
     12      19.5492      0.00000
     13      21.8970      0.00000
     14      22.0001      0.00000

 k-point   267 :       0.3333    0.3333    0.3333
  band No.  band energies     occupation 
      1       1.2276      2.00000
      2       4.5495      2.00000
      3       4.5495      2.00000
      4       4.5495      2.00000
      5       7.9321      2.00000
      6       7.9321      2.00000
      7       7.9321      2.00000
      8      11.1319     -0.00025
      9      17.6570      0.00000
     10      17.6570      0.00000
     11      17.6570      0.00000
     12      20.1626      0.00000
     13      20.1626      0.00000
     14      20.1626      0.00000

 k-point   268 :       0.3810    0.3333    0.3333
  band No.  band energies     occupation 
      1       1.5733      2.00000
      2       3.9533      2.00000
      3       4.8689      2.00000
      4       4.8689      2.00000
      5       7.3582      2.00000
      6       7.3582      2.00000
      7       8.2554      2.00000
      8      10.5472      0.95759
      9      17.9535      0.00000
     10      17.9535      0.00000
     11      18.8046      0.00000
     12      20.1821      0.00000
     13      20.1821      0.00000
     14      20.4484      0.00000

 k-point   269 :       0.4286    0.3333    0.3333
  band No.  band energies     occupation 
      1       1.9636      2.00000
      2       3.3942      2.00000
      3       5.2098      2.00000
      4       5.2098      2.00000
      5       6.8470      2.00000
      6       6.8470      2.00000
      7       8.6258      2.00000
      8      10.0031      2.00092
      9      18.2313      0.00000
     10      18.2313      0.00000
     11      19.9476      0.00000
     12      19.9476      0.00000
     13      19.9598      0.00000
     14      20.7721      0.00000

 k-point   270 :       0.4762    0.3333    0.3333
  band No.  band energies     occupation 
      1       2.3979      2.00000
      2       2.8751      2.00000
      3       5.5069      2.00000
      4       5.5069      2.00000
      5       6.4647      2.00000
      6       6.4647      2.00000
      7       9.0414      2.00000
      8       9.5008      2.00000
      9      18.4282      0.00000
     10      18.4282      0.00000
     11      19.7405      0.00000
     12      19.7405      0.00000
     13      21.0936      0.00000
     14      21.1338      0.00000

 k-point   271 :       0.3810    0.3810    0.3333
  band No.  band energies     occupation 
      1       1.9178      2.00000
      2       4.2828      2.00000
      3       4.2828      2.00000
      4       5.1658      2.00000
      5       6.8037      2.00000
      6       7.6733      2.00000
      7       7.6733      2.00000
      8       9.9615      2.00032
      9      18.2935      0.00000
     10      19.0728      0.00000
     11      19.0728      0.00000
     12      20.5017      0.00000
     13      20.5017      0.00000
     14      20.7425      0.00000

 k-point   272 :       0.4286    0.3810    0.3333
  band No.  band energies     occupation 
      1       2.3065      2.00000
      2       3.7292      2.00000
      3       4.6482      2.00000
      4       5.4199      2.00000
      5       6.3763      2.00000
      6       7.1400      2.00000
      7       8.0405      2.00000
      8       9.4167      2.00000
      9      18.6293      0.00000
     10      19.2423      0.00000
     11      20.1348      0.00000
     12      20.3768      0.00000
     13      20.8013      0.00000
     14      20.9242      0.00000

 k-point   273 :       0.4762    0.3810    0.3333
  band No.  band energies     occupation 
      1       2.7388      2.00000
      2       3.2136      2.00000
      3       5.0347      2.00000
      4       5.3770      2.00000
      5       6.3310      2.00000
      6       6.6706      2.00000
      7       8.4548      2.00000
      8       8.9140      2.00000
      9      18.9494      0.00000
     10      19.1955      0.00000
     11      20.3972      0.00000
     12      20.5964      0.00000
     13      20.9099      0.00000
     14      21.4074      0.00000

 k-point   274 :       0.4286    0.4286    0.3333
  band No.  band energies     occupation 
      1       2.6934      2.00000
      2       4.1045      2.00000
      3       4.1045      2.00000
      4       5.3337      2.00000
      5       6.2863      2.00000
      6       7.4995      2.00000
      7       7.4995      2.00000
      8       8.8714      2.00000
      9      19.0044      0.00000
     10      20.0327      0.00000
     11      20.0327      0.00000
     12      21.0669      0.00000
     13      21.0670      0.00000
     14      21.3953      0.00000

 k-point   275 :       0.4762    0.4286    0.3333
  band No.  band energies     occupation 
      1       3.1231      2.00000
      2       3.5944      2.00000
      3       4.5154      2.00000
      4       4.9470      2.00000
      5       6.5820      2.00000
      6       7.0084      2.00000
      7       7.9108      2.00000
      8       8.3689      2.00000
      9      19.3765      0.00000
     10      19.7361      0.00000
     11      20.5732      0.00000
     12      21.0289      0.00000
     13      21.2970      0.00000
     14      21.4871      0.00000

 k-point   276 :       0.4762    0.4762    0.3333
  band No.  band energies     occupation 
      1       3.5494      2.00000
      2       4.0152      2.00000
      3       4.0152      2.00000
      4       4.4710      2.00000
      5       6.9644      2.00000
      6       7.4122      2.00000
      7       7.4122      2.00000
      8       7.8674      2.00000
      9      19.7817      0.00000
     10      20.1840      0.00000
     11      20.1840      0.00000
     12      20.6110      0.00000
     13      22.1225      0.00000
     14      22.2218      0.00000

 k-point   277 :       0.3810    0.3810    0.3810
  band No.  band energies     occupation 
      1       2.2609      2.00000
      2       4.6037      2.00000
      3       4.6037      2.00000
      4       4.6037      2.00000
      5       7.0970      2.00000
      6       7.0970      2.00000
      7       7.0970      2.00000
      8       9.3749      2.00000
      9      19.4313      0.00000
     10      19.4313      0.00000
     11      19.4313      0.00000
     12      21.0253      0.00000
     13      21.0253      0.00000
     14      21.0253      0.00000

 k-point   278 :       0.4286    0.3810    0.3810
  band No.  band energies     occupation 
      1       2.6479      2.00000
      2       4.0598      2.00000
      3       4.9466      2.00000
      4       4.9466      2.00000
      5       6.5831      2.00000
      6       6.5831      2.00000
      7       7.4566      2.00000
      8       8.8293      2.00000
      9      19.7380      0.00000
     10      19.7380      0.00000
     11      20.5699      0.00000
     12      21.1105      0.00000
     13      21.1105      0.00000
     14      21.3450      0.00000

 k-point   279 :       0.4762    0.3810    0.3810
  band No.  band energies     occupation 
      1       3.0779      2.00000
      2       3.5493      2.00000
      3       5.2467      2.00000
      4       5.2467      2.00000
      5       6.1974      2.00000
      6       6.1974      2.00000
      7       7.8682      2.00000
      8       8.3265      2.00000
      9      19.9541      0.00000
     10      19.9541      0.00000
     11      20.9960      0.00000
     12      20.9961      0.00000
     13      21.6707      0.00000
     14      21.7011      0.00000

 k-point   280 :       0.4286    0.4286    0.3810
  band No.  band energies     occupation 
      1       3.0326      2.00000
      2       4.4264      2.00000
      3       4.4264      2.00000
      4       5.2032      2.00000
      5       6.1527      2.00000
      6       6.9215      2.00000
      7       6.9215      2.00000
      8       8.2836      2.00000
      9      20.1253      0.00000
     10      20.7848      0.00000
     11      20.7848      0.00000
     12      21.5130      0.00000
     13      21.5130      0.00000
     14      21.6708      0.00000

 k-point   281 :       0.4762    0.4286    0.3810
  band No.  band energies     occupation 
      1       3.4593      2.00000
      2       3.9256      2.00000
      3       4.8149      2.00000
      4       5.1600      2.00000
      5       6.1075      2.00000
      6       6.4499      2.00000
      7       7.3259      2.00000
      8       7.7816      2.00000
      9      20.4659      0.00000
     10      20.7291      0.00000
     11      21.5329      0.00000
     12      21.6349      0.00000
     13      21.7831      0.00000
     14      22.0066      0.00000

 k-point   282 :       0.4762    0.4762    0.3810
  band No.  band energies     occupation 
      1       3.8809      2.00000
      2       4.3376      2.00000
      3       4.3376      2.00000
      4       4.7709      2.00000
      5       6.4055      2.00000
      6       6.8334      2.00000
      7       6.8334      2.00000
      8       7.2821      2.00000
      9      20.8729      0.00000
     10      21.2354      0.00000
     11      21.2355      0.00000
     12      21.6445      0.00000
     13      22.3855      0.00000
     14      22.4608      0.00000

 k-point   283 :       0.4286    0.4286    0.4286
  band No.  band energies     occupation 
      1       3.4142      2.00000
      2       4.7708      2.00000
      3       4.7708      2.00000
      4       4.7708      2.00000
      5       6.4058      2.00000
      6       6.4058      2.00000
      7       6.4058      2.00000
      8       7.7384      2.00000
      9      21.2329      0.00000
     10      21.2329      0.00000
     11      21.2329      0.00000
     12      21.9796      0.00000
     13      21.9796      0.00000
     14      21.9800      0.00000

 k-point   284 :       0.4762    0.4286    0.4286
  band No.  band energies     occupation 
      1       3.8360      2.00000
      2       4.2931      2.00000
      3       5.0731      2.00000
      4       5.0731      2.00000
      5       6.0176      2.00000
      6       6.0176      2.00000
      7       6.7896      2.00000
      8       7.2386      2.00000
      9      21.4850      0.00000
     10      21.4850      0.00000
     11      22.1325      0.00000
     12      22.1331      0.00000
     13      22.2664      0.00000
     14      22.3176      0.00000

 k-point   285 :       0.4762    0.4762    0.4286
  band No.  band energies     occupation 
      1       4.2487      2.00000
      2       4.6828      2.00000
      3       4.6828      2.00000
      4       5.0297      2.00000
      5       5.9724      2.00000
      6       6.3167      2.00000
      7       6.3167      2.00000
      8       6.7455      2.00000
      9      21.9194      0.00000
     10      22.1907      0.00000
     11      22.1947      0.00000
     12      22.5861      0.00000
     13      22.6426      0.00000
     14      22.6937      0.00000

 k-point   286 :       0.4762    0.4762    0.4762
  band No.  band energies     occupation 
      1       4.6387      2.00000
      2       4.9863      2.00000
      3       4.9863      2.00000
      4       4.9863      2.00000
      5       5.9272      2.00000
      6       5.9272      2.00000
      7       5.9272      2.00000
      8       6.2721      2.00000
      9      22.7978      0.00000
     10      22.8017      0.00000
     11      22.8219      0.00000
     12      22.9049      0.00000
     13      22.9167      0.00000
     14      22.9684      0.00000


--------------------------------------------------------------------------------------------------------


 soft charge-density along one line, spin component           1
         0         1         2         3         4         5         6         7         8         9
 total charge-density along one line

 pseudopotential strength for first ion, spin component:           1
  8.368  14.256  -0.000  -0.000  -0.000  -0.000  -0.000  -0.000
 14.256  24.288  -0.000  -0.000  -0.000  -0.000  -0.000  -0.000
 -0.000  -0.000   2.002   0.000  -0.000   5.749   0.000  -0.000
 -0.000  -0.000   0.000   2.002   0.000   0.000   5.749   0.000
 -0.000  -0.000  -0.000   0.000   2.002  -0.000   0.000   5.749
 -0.000  -0.000   5.749   0.000  -0.000  16.436   0.000  -0.000
 -0.000  -0.000   0.000   5.749   0.000   0.000  16.436   0.000
 -0.000  -0.000  -0.000   0.000   5.749  -0.000   0.000  16.436
 total augmentation occupancy for first ion, spin component:           1
  4.533  -1.337   0.000  -0.000   0.000   0.000   0.000   0.000
 -1.337   0.454   0.000   0.000  -0.000   0.000   0.000  -0.000
  0.000   0.000   1.471   0.000  -0.000  -0.105  -0.000   0.000
 -0.000   0.000   0.000   1.471   0.000  -0.000  -0.105  -0.000
  0.000  -0.000  -0.000   0.000   1.471   0.000  -0.000  -0.105
  0.000   0.000  -0.105  -0.000   0.000   0.008   0.000  -0.000
  0.000   0.000  -0.000  -0.105  -0.000   0.000   0.008   0.000
  0.000  -0.000   0.000  -0.000  -0.105  -0.000   0.000   0.008


------------------------ aborting loop because EDIFF is reached ----------------------------------------


    CHARGE:  cpu time      0.4152: real time      0.2090
    FORLOC:  cpu time      0.0003: real time      0.0003
    FORNL :  cpu time      2.4468: real time      1.2268
    STRESS:  cpu time      7.3059: real time      3.6596
    FORCOR:  cpu time      0.0257: real time      0.0137
    FORHAR:  cpu time      0.0084: real time      0.0044
    MIXING:  cpu time      0.0006: real time      0.0006
    OFIELD:  cpu time      0.0000: real time      0.0000

  FORCE on cell =-STRESS in cart. coord.  units (eV):
  Direction    XX          YY          ZZ          XY          YZ          ZX
  --------------------------------------------------------------------------------------
  Alpha Z    -1.01957    -1.01957    -1.01957
  Ewald    -105.65033  -105.65033  -105.65033    -0.00000     0.00000     0.00000
  Hartree     0.22691     0.22691     0.22691    -0.00000    -0.00000    -0.00000
  E(xc)     -37.02618   -37.02618   -37.02618     0.00000    -0.00000    -0.00000
  Local       4.75350     4.75350     4.75350    -0.00000    -0.00000     0.00000
  n-local    80.12197    81.23817    84.77013     0.97376     2.06852     0.89431
  augment    -3.70021    -3.70021    -3.70021     0.00000     0.00000     0.00000
  Kinetic    66.53671    69.18409    73.75532     1.75285    -9.30469    -1.60902
  Fock        0.00000     0.00000     0.00000     0.00000     0.00000     0.00000
  -------------------------------------------------------------------------------------
  Total       9.45292     9.45292     9.45292    -0.00000     0.00000     0.00000
  in kB     287.33437   287.33437   287.33437    -0.00000     0.00000     0.00000
  external pressure =      287.33 kB  Pullay stress =        0.00 kB


 VOLUME and BASIS-vectors are now :
 -----------------------------------------------------------------------------
  energy-cutoff  :      400.00
  volume of cell :       52.71
      direct lattice vectors                 reciprocal lattice vectors
     3.749410193  0.000000000  0.000000000     0.266708615  0.000000000 -0.000000000
    -0.000000000  3.749410193  0.000000000     0.000000000  0.266708615  0.000000000
     0.000000000  0.000000000  3.749410193    -0.000000000 -0.000000000  0.266708615

  length of vectors
     3.749410193  3.749410193  3.749410193     0.266708615  0.266708615  0.266708615


 FORCES acting on ions
    electron-ion (+dipol)            ewald-force                    non-local-force                 convergence-correction
 -----------------------------------------------------------------------------------------------
   0.130E-14 -.101E-14 0.125E-14   -.127E-14 -.796E-15 -.116E-14   -.727E-25 -.270E-27 -.138E-25   0.243E-14 -.168E-16 0.127E-16
   0.995E-15 -.528E-14 -.312E-14   -.130E-14 0.111E-14 0.403E-15   0.265E-25 0.437E-25 0.831E-25   0.242E-14 0.134E-16 0.331E-17
   -.567E-14 -.103E-14 0.799E-14   0.123E-14 -.111E-14 0.405E-15   -.156E-25 0.967E-26 -.130E-25   -.241E-14 -.131E-16 -.799E-17
   -.570E-14 0.164E-13 0.330E-13   0.120E-14 0.792E-15 0.413E-15   -.417E-25 -.271E-26 -.321E-25   -.241E-14 0.117E-16 0.154E-16
 -----------------------------------------------------------------------------------------------
   -.908E-14 0.909E-14 0.391E-13   -.142E-15 -.719E-17 0.571E-16   -.103E-24 0.504E-25 0.242E-25   0.310E-16 -.470E-17 0.235E-16


 POSITION                                       TOTAL-FORCE (eV/Angst)
 -----------------------------------------------------------------------------------
      0.00000      0.00000      0.00000        -0.000000     -0.000000      0.000000
     -0.00000      1.87471      1.87471        -0.000000     -0.000000     -0.000000
      1.87471      0.00000      1.87471        -0.000000      0.000000     -0.000000
      1.87471      1.87471      0.00000         0.000000      0.000000      0.000000
 -----------------------------------------------------------------------------------
    total drift:                               -0.000000      0.000000      0.000000


--------------------------------------------------------------------------------------------------------



  FREE ENERGIE OF THE ION-ELECTRON SYSTEM (eV)
  ---------------------------------------------------
  free  energy   TOTEN  =       -14.01375353 eV

  energy  without entropy=      -14.01402368  energy(sigma->0) =      -14.01384358



--------------------------------------------------------------------------------------------------------


    POTLOK:  cpu time      0.0344: real time      0.0184


--------------------------------------------------------------------------------------------------------




--------------------------------------------------------------------------------------------------------


  
 reached required accuracy - stopping structural energy minimisation
     LOOP+:  cpu time    129.6095: real time     65.3625
    4ORBIT:  cpu time      0.0000: real time      0.0000

 total amount of memory used by VASP MPI-rank0    37062. kBytes
=======================================================================

   base      :      30000. kBytes
   nonlr-proj:        990. kBytes
   fftplans  :        368. kBytes
   grid      :       1016. kBytes
   one-center:         12. kBytes
   wavefun   :       4676. kBytes

  
  
 General timing and accounting informations for this job:
 ========================================================
  
                  Total CPU time used (sec):      133.361
                            User time (sec):      131.532
                          System time (sec):        1.829
                         Elapsed time (sec):       68.566
  
                   Maximum memory used (kb):       60032.
                   Average memory used (kb):          N/A
  
                          Minor page faults:        29200
                          Major page faults:           18
                 Voluntary context switches:         2158
