<?xml version="1.0" encoding="ISO-8859-1"?>
<modeling>
 <generator>
  <i name="program" type="string">vasp </i>
  <i name="version" type="string">6.4.2  </i>
  <i name="subversion" type="string">20Jul23 (build Apr 22 2024 22:35:45) complex                          parallel </i>
  <i name="platform" type="string">LinuxGNU </i>
  <i name="date" type="string">2024 05 26 </i>
  <i name="time" type="string">15:42:57 </i>
 </generator>
 <incar>
  <i type="string" name="SYSTEM">Al fcc relaxation</i>
  <i type="string" name="PREC">Accurate</i>
  <i type="string" name="ALGO">Fast</i>
  <i type="int" name="NELM">    60</i>
  <i type="int" name="NELMIN">     4</i>
  <i type="int" name="IBRION">     2</i>
  <i name="EDIFF">      0.00000100</i>
  <i type="int" name="NSW">   100</i>
  <i type="int" name="ISIF">     4</i>
  <i name="ENCUT">    400.00000000</i>
  <i type="string" name="LREAL">Auto</i>
  <i type="int" name="ISMEAR">     1</i>
  <i name="SIGMA">      0.20000000</i>
  <i name="KSPACING">      0.08000000</i>
  <i type="logical" name="LWAVE"> F  </i>
  <i type="logical" name="LCHARG"> F  </i>
 </incar>
 <primitive_cell>
  <structure name="primitive_cell" >
   <crystal>
    <varray name="basis" >
     <v>       1.87470510      -1.87470510       0.00000000 </v>
     <v>       1.87470510       0.00000000       1.87470510 </v>
     <v>       0.00000000      -1.87470510       1.87470510 </v>
    </varray>
    <i name="volume">     13.17737410 </i>
    <varray name="rec_basis" >
     <v>       0.26670862      -0.26670862      -0.26670862 </v>
     <v>       0.26670862       0.26670862       0.26670862 </v>
     <v>      -0.26670862      -0.26670862       0.26670862 </v>
    </varray>
   </crystal>
   <varray name="positions" >
    <v>       0.00000000       0.00000000       0.00000000 </v>
   </varray>
  </structure>
  <varray name="primitive_index" >
   <v type="int" >        1 </v>
  </varray>
 </primitive_cell>
 <kpoints>
  <generation param="Monkhorst-Pack">
   <v type="int" name="divisions">      21       21       21 </v>
   <v name="usershift">      0.00000000       0.00000000       0.00000000 </v>
   <v name="genvec1">      0.04761905       0.00000000       0.00000000 </v>
   <v name="genvec2">      0.00000000       0.04761905       0.00000000 </v>
   <v name="genvec3">     -0.00000000      -0.00000000       0.04761905 </v>
   <v name="shift">      0.00000000       0.00000000       0.00000000 </v>
  </generation>
  <varray name="kpointlist" >
   <v>       0.00000000       0.00000000       0.00000000 </v>
   <v>       0.04761905       0.00000000       0.00000000 </v>
   <v>       0.09523810       0.00000000       0.00000000 </v>
   <v>       0.14285714       0.00000000       0.00000000 </v>
   <v>       0.19047619       0.00000000       0.00000000 </v>
   <v>       0.23809524       0.00000000       0.00000000 </v>
   <v>       0.28571429       0.00000000       0.00000000 </v>
   <v>       0.33333333       0.00000000       0.00000000 </v>
   <v>       0.38095238       0.00000000       0.00000000 </v>
   <v>       0.42857143       0.00000000       0.00000000 </v>
   <v>       0.47619048       0.00000000       0.00000000 </v>
   <v>       0.04761905       0.04761905       0.00000000 </v>
   <v>       0.09523810       0.04761905       0.00000000 </v>
   <v>       0.14285714       0.04761905       0.00000000 </v>
   <v>       0.19047619       0.04761905       0.00000000 </v>
   <v>       0.23809524       0.04761905       0.00000000 </v>
   <v>       0.28571429       0.04761905       0.00000000 </v>
   <v>       0.33333333       0.04761905       0.00000000 </v>
   <v>       0.38095238       0.04761905       0.00000000 </v>
   <v>       0.42857143       0.04761905       0.00000000 </v>
   <v>       0.47619048       0.04761905       0.00000000 </v>
   <v>       0.09523810       0.09523810       0.00000000 </v>
   <v>       0.14285714       0.09523810       0.00000000 </v>
   <v>       0.19047619       0.09523810       0.00000000 </v>
   <v>       0.23809524       0.09523810       0.00000000 </v>
   <v>       0.28571429       0.09523810       0.00000000 </v>
   <v>       0.33333333       0.09523810       0.00000000 </v>
   <v>       0.38095238       0.09523810       0.00000000 </v>
   <v>       0.42857143       0.09523810       0.00000000 </v>
   <v>       0.47619048       0.09523810       0.00000000 </v>
   <v>       0.14285714       0.14285714       0.00000000 </v>
   <v>       0.19047619       0.14285714       0.00000000 </v>
   <v>       0.23809524       0.14285714       0.00000000 </v>
   <v>       0.28571429       0.14285714       0.00000000 </v>
   <v>       0.33333333       0.14285714       0.00000000 </v>
   <v>       0.38095238       0.14285714       0.00000000 </v>
   <v>       0.42857143       0.14285714       0.00000000 </v>
   <v>       0.47619048       0.14285714       0.00000000 </v>
   <v>       0.19047619       0.19047619       0.00000000 </v>
   <v>       0.23809524       0.19047619       0.00000000 </v>
   <v>       0.28571429       0.19047619       0.00000000 </v>
   <v>       0.33333333       0.19047619       0.00000000 </v>
   <v>       0.38095238       0.19047619       0.00000000 </v>
   <v>       0.42857143       0.19047619       0.00000000 </v>
   <v>       0.47619048       0.19047619       0.00000000 </v>
   <v>       0.23809524       0.23809524       0.00000000 </v>
   <v>       0.28571429       0.23809524       0.00000000 </v>
   <v>       0.33333333       0.23809524       0.00000000 </v>
   <v>       0.38095238       0.23809524       0.00000000 </v>
   <v>       0.42857143       0.23809524       0.00000000 </v>
   <v>       0.47619048       0.23809524       0.00000000 </v>
   <v>       0.28571429       0.28571429       0.00000000 </v>
   <v>       0.33333333       0.28571429       0.00000000 </v>
   <v>       0.38095238       0.28571429       0.00000000 </v>
   <v>       0.42857143       0.28571429       0.00000000 </v>
   <v>       0.47619048       0.28571429       0.00000000 </v>
   <v>       0.33333333       0.33333333       0.00000000 </v>
   <v>       0.38095238       0.33333333       0.00000000 </v>
   <v>       0.42857143       0.33333333       0.00000000 </v>
   <v>       0.47619048       0.33333333       0.00000000 </v>
   <v>       0.38095238       0.38095238       0.00000000 </v>
   <v>       0.42857143       0.38095238       0.00000000 </v>
   <v>       0.47619048       0.38095238       0.00000000 </v>
   <v>       0.42857143       0.42857143       0.00000000 </v>
   <v>       0.47619048       0.42857143       0.00000000 </v>
   <v>       0.47619048       0.47619048       0.00000000 </v>
   <v>       0.04761905       0.04761905       0.04761905 </v>
   <v>       0.09523810       0.04761905       0.04761905 </v>
   <v>       0.14285714       0.04761905       0.04761905 </v>
   <v>       0.19047619       0.04761905       0.04761905 </v>
   <v>       0.23809524       0.04761905       0.04761905 </v>
   <v>       0.28571429       0.04761905       0.04761905 </v>
   <v>       0.33333333       0.04761905       0.04761905 </v>
   <v>       0.38095238       0.04761905       0.04761905 </v>
   <v>       0.42857143       0.04761905       0.04761905 </v>
   <v>       0.47619048       0.04761905       0.04761905 </v>
   <v>       0.09523810       0.09523810       0.04761905 </v>
   <v>       0.14285714       0.09523810       0.04761905 </v>
   <v>       0.19047619       0.09523810       0.04761905 </v>
   <v>       0.23809524       0.09523810       0.04761905 </v>
   <v>       0.28571429       0.09523810       0.04761905 </v>
   <v>       0.33333333       0.09523810       0.04761905 </v>
   <v>       0.38095238       0.09523810       0.04761905 </v>
   <v>       0.42857143       0.09523810       0.04761905 </v>
   <v>       0.47619048       0.09523810       0.04761905 </v>
   <v>       0.14285714       0.14285714       0.04761905 </v>
   <v>       0.19047619       0.14285714       0.04761905 </v>
   <v>       0.23809524       0.14285714       0.04761905 </v>
   <v>       0.28571429       0.14285714       0.04761905 </v>
   <v>       0.33333333       0.14285714       0.04761905 </v>
   <v>       0.38095238       0.14285714       0.04761905 </v>
   <v>       0.42857143       0.14285714       0.04761905 </v>
   <v>       0.47619048       0.14285714       0.04761905 </v>
   <v>       0.19047619       0.19047619       0.04761905 </v>
   <v>       0.23809524       0.19047619       0.04761905 </v>
   <v>       0.28571429       0.19047619       0.04761905 </v>
   <v>       0.33333333       0.19047619       0.04761905 </v>
   <v>       0.38095238       0.19047619       0.04761905 </v>
   <v>       0.42857143       0.19047619       0.04761905 </v>
   <v>       0.47619048       0.19047619       0.04761905 </v>
   <v>       0.23809524       0.23809524       0.04761905 </v>
   <v>       0.28571429       0.23809524       0.04761905 </v>
   <v>       0.33333333       0.23809524       0.04761905 </v>
   <v>       0.38095238       0.23809524       0.04761905 </v>
   <v>       0.42857143       0.23809524       0.04761905 </v>
   <v>       0.47619048       0.23809524       0.04761905 </v>
   <v>       0.28571429       0.28571429       0.04761905 </v>
   <v>       0.33333333       0.28571429       0.04761905 </v>
   <v>       0.38095238       0.28571429       0.04761905 </v>
   <v>       0.42857143       0.28571429       0.04761905 </v>
   <v>       0.47619048       0.28571429       0.04761905 </v>
   <v>       0.33333333       0.33333333       0.04761905 </v>
   <v>       0.38095238       0.33333333       0.04761905 </v>
   <v>       0.42857143       0.33333333       0.04761905 </v>
   <v>       0.47619048       0.33333333       0.04761905 </v>
   <v>       0.38095238       0.38095238       0.04761905 </v>
   <v>       0.42857143       0.38095238       0.04761905 </v>
   <v>       0.47619048       0.38095238       0.04761905 </v>
   <v>       0.42857143       0.42857143       0.04761905 </v>
   <v>       0.47619048       0.42857143       0.04761905 </v>
   <v>       0.47619048       0.47619048       0.04761905 </v>
   <v>       0.09523810       0.09523810       0.09523810 </v>
   <v>       0.14285714       0.09523810       0.09523810 </v>
   <v>       0.19047619       0.09523810       0.09523810 </v>
   <v>       0.23809524       0.09523810       0.09523810 </v>
   <v>       0.28571429       0.09523810       0.09523810 </v>
   <v>       0.33333333       0.09523810       0.09523810 </v>
   <v>       0.38095238       0.09523810       0.09523810 </v>
   <v>       0.42857143       0.09523810       0.09523810 </v>
   <v>       0.47619048       0.09523810       0.09523810 </v>
   <v>       0.14285714       0.14285714       0.09523810 </v>
   <v>       0.19047619       0.14285714       0.09523810 </v>
   <v>       0.23809524       0.14285714       0.09523810 </v>
   <v>       0.28571429       0.14285714       0.09523810 </v>
   <v>       0.33333333       0.14285714       0.09523810 </v>
   <v>       0.38095238       0.14285714       0.09523810 </v>
   <v>       0.42857143       0.14285714       0.09523810 </v>
   <v>       0.47619048       0.14285714       0.09523810 </v>
   <v>       0.19047619       0.19047619       0.09523810 </v>
   <v>       0.23809524       0.19047619       0.09523810 </v>
   <v>       0.28571429       0.19047619       0.09523810 </v>
   <v>       0.33333333       0.19047619       0.09523810 </v>
   <v>       0.38095238       0.19047619       0.09523810 </v>
   <v>       0.42857143       0.19047619       0.09523810 </v>
   <v>       0.47619048       0.19047619       0.09523810 </v>
   <v>       0.23809524       0.23809524       0.09523810 </v>
   <v>       0.28571429       0.23809524       0.09523810 </v>
   <v>       0.33333333       0.23809524       0.09523810 </v>
   <v>       0.38095238       0.23809524       0.09523810 </v>
   <v>       0.42857143       0.23809524       0.09523810 </v>
   <v>       0.47619048       0.23809524       0.09523810 </v>
   <v>       0.28571429       0.28571429       0.09523810 </v>
   <v>       0.33333333       0.28571429       0.09523810 </v>
   <v>       0.38095238       0.28571429       0.09523810 </v>
   <v>       0.42857143       0.28571429       0.09523810 </v>
   <v>       0.47619048       0.28571429       0.09523810 </v>
   <v>       0.33333333       0.33333333       0.09523810 </v>
   <v>       0.38095238       0.33333333       0.09523810 </v>
   <v>       0.42857143       0.33333333       0.09523810 </v>
   <v>       0.47619048       0.33333333       0.09523810 </v>
   <v>       0.38095238       0.38095238       0.09523810 </v>
   <v>       0.42857143       0.38095238       0.09523810 </v>
   <v>       0.47619048       0.38095238       0.09523810 </v>
   <v>       0.42857143       0.42857143       0.09523810 </v>
   <v>       0.47619048       0.42857143       0.09523810 </v>
   <v>       0.47619048       0.47619048       0.09523810 </v>
   <v>       0.14285714       0.14285714       0.14285714 </v>
   <v>       0.19047619       0.14285714       0.14285714 </v>
   <v>       0.23809524       0.14285714       0.14285714 </v>
   <v>       0.28571429       0.14285714       0.14285714 </v>
   <v>       0.33333333       0.14285714       0.14285714 </v>
   <v>       0.38095238       0.14285714       0.14285714 </v>
   <v>       0.42857143       0.14285714       0.14285714 </v>
   <v>       0.47619048       0.14285714       0.14285714 </v>
   <v>       0.19047619       0.19047619       0.14285714 </v>
   <v>       0.23809524       0.19047619       0.14285714 </v>
   <v>       0.28571429       0.19047619       0.14285714 </v>
   <v>       0.33333333       0.19047619       0.14285714 </v>
   <v>       0.38095238       0.19047619       0.14285714 </v>
   <v>       0.42857143       0.19047619       0.14285714 </v>
   <v>       0.47619048       0.19047619       0.14285714 </v>
   <v>       0.23809524       0.23809524       0.14285714 </v>
   <v>       0.28571429       0.23809524       0.14285714 </v>
   <v>       0.33333333       0.23809524       0.14285714 </v>
   <v>       0.38095238       0.23809524       0.14285714 </v>
   <v>       0.42857143       0.23809524       0.14285714 </v>
   <v>       0.47619048       0.23809524       0.14285714 </v>
   <v>       0.28571429       0.28571429       0.14285714 </v>
   <v>       0.33333333       0.28571429       0.14285714 </v>
   <v>       0.38095238       0.28571429       0.14285714 </v>
   <v>       0.42857143       0.28571429       0.14285714 </v>
   <v>       0.47619048       0.28571429       0.14285714 </v>
   <v>       0.33333333       0.33333333       0.14285714 </v>
   <v>       0.38095238       0.33333333       0.14285714 </v>
   <v>       0.42857143       0.33333333       0.14285714 </v>
   <v>       0.47619048       0.33333333       0.14285714 </v>
   <v>       0.38095238       0.38095238       0.14285714 </v>
   <v>       0.42857143       0.38095238       0.14285714 </v>
   <v>       0.47619048       0.38095238       0.14285714 </v>
   <v>       0.42857143       0.42857143       0.14285714 </v>
   <v>       0.47619048       0.42857143       0.14285714 </v>
   <v>       0.47619048       0.47619048       0.14285714 </v>
   <v>       0.19047619       0.19047619       0.19047619 </v>
   <v>       0.23809524       0.19047619       0.19047619 </v>
   <v>       0.28571429       0.19047619       0.19047619 </v>
   <v>       0.33333333       0.19047619       0.19047619 </v>
   <v>       0.38095238       0.19047619       0.19047619 </v>
   <v>       0.42857143       0.19047619       0.19047619 </v>
   <v>       0.47619048       0.19047619       0.19047619 </v>
   <v>       0.23809524       0.23809524       0.19047619 </v>
   <v>       0.28571429       0.23809524       0.19047619 </v>
   <v>       0.33333333       0.23809524       0.19047619 </v>
   <v>       0.38095238       0.23809524       0.19047619 </v>
   <v>       0.42857143       0.23809524       0.19047619 </v>
   <v>       0.47619048       0.23809524       0.19047619 </v>
   <v>       0.28571429       0.28571429       0.19047619 </v>
   <v>       0.33333333       0.28571429       0.19047619 </v>
   <v>       0.38095238       0.28571429       0.19047619 </v>
   <v>       0.42857143       0.28571429       0.19047619 </v>
   <v>       0.47619048       0.28571429       0.19047619 </v>
   <v>       0.33333333       0.33333333       0.19047619 </v>
   <v>       0.38095238       0.33333333       0.19047619 </v>
   <v>       0.42857143       0.33333333       0.19047619 </v>
   <v>       0.47619048       0.33333333       0.19047619 </v>
   <v>       0.38095238       0.38095238       0.19047619 </v>
   <v>       0.42857143       0.38095238       0.19047619 </v>
   <v>       0.47619048       0.38095238       0.19047619 </v>
   <v>       0.42857143       0.42857143       0.19047619 </v>
   <v>       0.47619048       0.42857143       0.19047619 </v>
   <v>       0.47619048       0.47619048       0.19047619 </v>
   <v>       0.23809524       0.23809524       0.23809524 </v>
   <v>       0.28571429       0.23809524       0.23809524 </v>
   <v>       0.33333333       0.23809524       0.23809524 </v>
   <v>       0.38095238       0.23809524       0.23809524 </v>
   <v>       0.42857143       0.23809524       0.23809524 </v>
   <v>       0.47619048       0.23809524       0.23809524 </v>
   <v>       0.28571429       0.28571429       0.23809524 </v>
   <v>       0.33333333       0.28571429       0.23809524 </v>
   <v>       0.38095238       0.28571429       0.23809524 </v>
   <v>       0.42857143       0.28571429       0.23809524 </v>
   <v>       0.47619048       0.28571429       0.23809524 </v>
   <v>       0.33333333       0.33333333       0.23809524 </v>
   <v>       0.38095238       0.33333333       0.23809524 </v>
   <v>       0.42857143       0.33333333       0.23809524 </v>
   <v>       0.47619048       0.33333333       0.23809524 </v>
   <v>       0.38095238       0.38095238       0.23809524 </v>
   <v>       0.42857143       0.38095238       0.23809524 </v>
   <v>       0.47619048       0.38095238       0.23809524 </v>
   <v>       0.42857143       0.42857143       0.23809524 </v>
   <v>       0.47619048       0.42857143       0.23809524 </v>
   <v>       0.47619048       0.47619048       0.23809524 </v>
   <v>       0.28571429       0.28571429       0.28571429 </v>
   <v>       0.33333333       0.28571429       0.28571429 </v>
   <v>       0.38095238       0.28571429       0.28571429 </v>
   <v>       0.42857143       0.28571429       0.28571429 </v>
   <v>       0.47619048       0.28571429       0.28571429 </v>
   <v>       0.33333333       0.33333333       0.28571429 </v>
   <v>       0.38095238       0.33333333       0.28571429 </v>
   <v>       0.42857143       0.33333333       0.28571429 </v>
   <v>       0.47619048       0.33333333       0.28571429 </v>
   <v>       0.38095238       0.38095238       0.28571429 </v>
   <v>       0.42857143       0.38095238       0.28571429 </v>
   <v>       0.47619048       0.38095238       0.28571429 </v>
   <v>       0.42857143       0.42857143       0.28571429 </v>
   <v>       0.47619048       0.42857143       0.28571429 </v>
   <v>       0.47619048       0.47619048       0.28571429 </v>
   <v>       0.33333333       0.33333333       0.33333333 </v>
   <v>       0.38095238       0.33333333       0.33333333 </v>
   <v>       0.42857143       0.33333333       0.33333333 </v>
   <v>       0.47619048       0.33333333       0.33333333 </v>
   <v>       0.38095238       0.38095238       0.33333333 </v>
   <v>       0.42857143       0.38095238       0.33333333 </v>
   <v>       0.47619048       0.38095238       0.33333333 </v>
   <v>       0.42857143       0.42857143       0.33333333 </v>
   <v>       0.47619048       0.42857143       0.33333333 </v>
   <v>       0.47619048       0.47619048       0.33333333 </v>
   <v>       0.38095238       0.38095238       0.38095238 </v>
   <v>       0.42857143       0.38095238       0.38095238 </v>
   <v>       0.47619048       0.38095238       0.38095238 </v>
   <v>       0.42857143       0.42857143       0.38095238 </v>
   <v>       0.47619048       0.42857143       0.38095238 </v>
   <v>       0.47619048       0.47619048       0.38095238 </v>
   <v>       0.42857143       0.42857143       0.42857143 </v>
   <v>       0.47619048       0.42857143       0.42857143 </v>
   <v>       0.47619048       0.47619048       0.42857143 </v>
   <v>       0.47619048       0.47619048       0.47619048 </v>
  </varray>
  <varray name="weights" >
   <v>       0.00010798 </v>
   <v>       0.00064788 </v>
   <v>       0.00064788 </v>
   <v>       0.00064788 </v>
   <v>       0.00064788 </v>
   <v>       0.00064788 </v>
   <v>       0.00064788 </v>
   <v>       0.00064788 </v>
   <v>       0.00064788 </v>
   <v>       0.00064788 </v>
   <v>       0.00064788 </v>
   <v>       0.00129576 </v>
   <v>       0.00259151 </v>
   <v>       0.00259151 </v>
   <v>       0.00259151 </v>
   <v>       0.00259151 </v>
   <v>       0.00259151 </v>
   <v>       0.00259151 </v>
   <v>       0.00259151 </v>
   <v>       0.00259151 </v>
   <v>       0.00259151 </v>
   <v>       0.00129576 </v>
   <v>       0.00259151 </v>
   <v>       0.00259151 </v>
   <v>       0.00259151 </v>
   <v>       0.00259151 </v>
   <v>       0.00259151 </v>
   <v>       0.00259151 </v>
   <v>       0.00259151 </v>
   <v>       0.00259151 </v>
   <v>       0.00129576 </v>
   <v>       0.00259151 </v>
   <v>       0.00259151 </v>
   <v>       0.00259151 </v>
   <v>       0.00259151 </v>
   <v>       0.00259151 </v>
   <v>       0.00259151 </v>
   <v>       0.00259151 </v>
   <v>       0.00129576 </v>
   <v>       0.00259151 </v>
   <v>       0.00259151 </v>
   <v>       0.00259151 </v>
   <v>       0.00259151 </v>
   <v>       0.00259151 </v>
   <v>       0.00259151 </v>
   <v>       0.00129576 </v>
   <v>       0.00259151 </v>
   <v>       0.00259151 </v>
   <v>       0.00259151 </v>
   <v>       0.00259151 </v>
   <v>       0.00259151 </v>
   <v>       0.00129576 </v>
   <v>       0.00259151 </v>
   <v>       0.00259151 </v>
   <v>       0.00259151 </v>
   <v>       0.00259151 </v>
   <v>       0.00129576 </v>
   <v>       0.00259151 </v>
   <v>       0.00259151 </v>
   <v>       0.00259151 </v>
   <v>       0.00129576 </v>
   <v>       0.00259151 </v>
   <v>       0.00259151 </v>
   <v>       0.00129576 </v>
   <v>       0.00259151 </v>
   <v>       0.00129576 </v>
   <v>       0.00086384 </v>
   <v>       0.00259151 </v>
   <v>       0.00259151 </v>
   <v>       0.00259151 </v>
   <v>       0.00259151 </v>
   <v>       0.00259151 </v>
   <v>       0.00259151 </v>
   <v>       0.00259151 </v>
   <v>       0.00259151 </v>
   <v>       0.00259151 </v>
   <v>       0.00259151 </v>
   <v>       0.00518303 </v>
   <v>       0.00518303 </v>
   <v>       0.00518303 </v>
   <v>       0.00518303 </v>
   <v>       0.00518303 </v>
   <v>       0.00518303 </v>
   <v>       0.00518303 </v>
   <v>       0.00518303 </v>
   <v>       0.00259151 </v>
   <v>       0.00518303 </v>
   <v>       0.00518303 </v>
   <v>       0.00518303 </v>
   <v>       0.00518303 </v>
   <v>       0.00518303 </v>
   <v>       0.00518303 </v>
   <v>       0.00518303 </v>
   <v>       0.00259151 </v>
   <v>       0.00518303 </v>
   <v>       0.00518303 </v>
   <v>       0.00518303 </v>
   <v>       0.00518303 </v>
   <v>       0.00518303 </v>
   <v>       0.00518303 </v>
   <v>       0.00259151 </v>
   <v>       0.00518303 </v>
   <v>       0.00518303 </v>
   <v>       0.00518303 </v>
   <v>       0.00518303 </v>
   <v>       0.00518303 </v>
   <v>       0.00259151 </v>
   <v>       0.00518303 </v>
   <v>       0.00518303 </v>
   <v>       0.00518303 </v>
   <v>       0.00518303 </v>
   <v>       0.00259151 </v>
   <v>       0.00518303 </v>
   <v>       0.00518303 </v>
   <v>       0.00518303 </v>
   <v>       0.00259151 </v>
   <v>       0.00518303 </v>
   <v>       0.00518303 </v>
   <v>       0.00259151 </v>
   <v>       0.00518303 </v>
   <v>       0.00259151 </v>
   <v>       0.00086384 </v>
   <v>       0.00259151 </v>
   <v>       0.00259151 </v>
   <v>       0.00259151 </v>
   <v>       0.00259151 </v>
   <v>       0.00259151 </v>
   <v>       0.00259151 </v>
   <v>       0.00259151 </v>
   <v>       0.00259151 </v>
   <v>       0.00259151 </v>
   <v>       0.00518303 </v>
   <v>       0.00518303 </v>
   <v>       0.00518303 </v>
   <v>       0.00518303 </v>
   <v>       0.00518303 </v>
   <v>       0.00518303 </v>
   <v>       0.00518303 </v>
   <v>       0.00259151 </v>
   <v>       0.00518303 </v>
   <v>       0.00518303 </v>
   <v>       0.00518303 </v>
   <v>       0.00518303 </v>
   <v>       0.00518303 </v>
   <v>       0.00518303 </v>
   <v>       0.00259151 </v>
   <v>       0.00518303 </v>
   <v>       0.00518303 </v>
   <v>       0.00518303 </v>
   <v>       0.00518303 </v>
   <v>       0.00518303 </v>
   <v>       0.00259151 </v>
   <v>       0.00518303 </v>
   <v>       0.00518303 </v>
   <v>       0.00518303 </v>
   <v>       0.00518303 </v>
   <v>       0.00259151 </v>
   <v>       0.00518303 </v>
   <v>       0.00518303 </v>
   <v>       0.00518303 </v>
   <v>       0.00259151 </v>
   <v>       0.00518303 </v>
   <v>       0.00518303 </v>
   <v>       0.00259151 </v>
   <v>       0.00518303 </v>
   <v>       0.00259151 </v>
   <v>       0.00086384 </v>
   <v>       0.00259151 </v>
   <v>       0.00259151 </v>
   <v>       0.00259151 </v>
   <v>       0.00259151 </v>
   <v>       0.00259151 </v>
   <v>       0.00259151 </v>
   <v>       0.00259151 </v>
   <v>       0.00259151 </v>
   <v>       0.00518303 </v>
   <v>       0.00518303 </v>
   <v>       0.00518303 </v>
   <v>       0.00518303 </v>
   <v>       0.00518303 </v>
   <v>       0.00518303 </v>
   <v>       0.00259151 </v>
   <v>       0.00518303 </v>
   <v>       0.00518303 </v>
   <v>       0.00518303 </v>
   <v>       0.00518303 </v>
   <v>       0.00518303 </v>
   <v>       0.00259151 </v>
   <v>       0.00518303 </v>
   <v>       0.00518303 </v>
   <v>       0.00518303 </v>
   <v>       0.00518303 </v>
   <v>       0.00259151 </v>
   <v>       0.00518303 </v>
   <v>       0.00518303 </v>
   <v>       0.00518303 </v>
   <v>       0.00259151 </v>
   <v>       0.00518303 </v>
   <v>       0.00518303 </v>
   <v>       0.00259151 </v>
   <v>       0.00518303 </v>
   <v>       0.00259151 </v>
   <v>       0.00086384 </v>
   <v>       0.00259151 </v>
   <v>       0.00259151 </v>
   <v>       0.00259151 </v>
   <v>       0.00259151 </v>
   <v>       0.00259151 </v>
   <v>       0.00259151 </v>
   <v>       0.00259151 </v>
   <v>       0.00518303 </v>
   <v>       0.00518303 </v>
   <v>       0.00518303 </v>
   <v>       0.00518303 </v>
   <v>       0.00518303 </v>
   <v>       0.00259151 </v>
   <v>       0.00518303 </v>
   <v>       0.00518303 </v>
   <v>       0.00518303 </v>
   <v>       0.00518303 </v>
   <v>       0.00259151 </v>
   <v>       0.00518303 </v>
   <v>       0.00518303 </v>
   <v>       0.00518303 </v>
   <v>       0.00259151 </v>
   <v>       0.00518303 </v>
   <v>       0.00518303 </v>
   <v>       0.00259151 </v>
   <v>       0.00518303 </v>
   <v>       0.00259151 </v>
   <v>       0.00086384 </v>
   <v>       0.00259151 </v>
   <v>       0.00259151 </v>
   <v>       0.00259151 </v>
   <v>       0.00259151 </v>
   <v>       0.00259151 </v>
   <v>       0.00259151 </v>
   <v>       0.00518303 </v>
   <v>       0.00518303 </v>
   <v>       0.00518303 </v>
   <v>       0.00518303 </v>
   <v>       0.00259151 </v>
   <v>       0.00518303 </v>
   <v>       0.00518303 </v>
   <v>       0.00518303 </v>
   <v>       0.00259151 </v>
   <v>       0.00518303 </v>
   <v>       0.00518303 </v>
   <v>       0.00259151 </v>
   <v>       0.00518303 </v>
   <v>       0.00259151 </v>
   <v>       0.00086384 </v>
   <v>       0.00259151 </v>
   <v>       0.00259151 </v>
   <v>       0.00259151 </v>
   <v>       0.00259151 </v>
   <v>       0.00259151 </v>
   <v>       0.00518303 </v>
   <v>       0.00518303 </v>
   <v>       0.00518303 </v>
   <v>       0.00259151 </v>
   <v>       0.00518303 </v>
   <v>       0.00518303 </v>
   <v>       0.00259151 </v>
   <v>       0.00518303 </v>
   <v>       0.00259151 </v>
   <v>       0.00086384 </v>
   <v>       0.00259151 </v>
   <v>       0.00259151 </v>
   <v>       0.00259151 </v>
   <v>       0.00259151 </v>
   <v>       0.00518303 </v>
   <v>       0.00518303 </v>
   <v>       0.00259151 </v>
   <v>       0.00518303 </v>
   <v>       0.00259151 </v>
   <v>       0.00086384 </v>
   <v>       0.00259151 </v>
   <v>       0.00259151 </v>
   <v>       0.00259151 </v>
   <v>       0.00518303 </v>
   <v>       0.00259151 </v>
   <v>       0.00086384 </v>
   <v>       0.00259151 </v>
   <v>       0.00259151 </v>
   <v>       0.00086384 </v>
  </varray>
 </kpoints>
 <parameters>
  <separator name="general" >
   <i type="string" name="SYSTEM">Al fcc relaxation</i>
   <i type="logical" name="LCOMPAT"> F  </i>
  </separator>
  <separator name="electronic" >
   <i type="string" name="PREC">accura</i>
   <i name="ENMAX">    400.00000000</i>
   <i name="ENAUG">    291.05200000</i>
   <i name="EDIFF">      0.00000100</i>
   <i type="int" name="IALGO">    68</i>
   <i type="int" name="IWAVPR">    11</i>
   <i type="int" name="NBANDS">    14</i>
   <i type="int" name="NBANDSLOW">    -1</i>
   <i type="int" name="NBANDSHIGH">    -1</i>
   <i name="NELECT">     12.00000000</i>
   <i type="int" name="TURBO">     0</i>
   <i type="int" name="IRESTART">     0</i>
   <i type="int" name="NREBOOT">     0</i>
   <i type="int" name="NMIN">     0</i>
   <i name="EREF">      0.00000000</i>
   <separator name="electronic smearing" >
    <i type="int" name="ISMEAR">     1</i>
    <i name="SIGMA">      0.20000000</i>
    <i name="KSPACING">      0.08000000</i>
    <i type="logical" name="KGAMMA"> T  </i>
    <i type="logical" name="KBLOWUP"> T  </i>
   </separator>
   <separator name="electronic projectors" >
    <i type="logical" name="LREAL"> T  </i>
    <v name="ROPT">     -0.00025000</v>
    <i type="int" name="LMAXPAW">  -100</i>
    <i type="int" name="LMAXMIX">     2</i>
    <i type="logical" name="NLSPLINE"> F  </i>
   </separator>
   <separator name="electronic startup" >
    <i type="int" name="ISTART">     0</i>
    <i type="int" name="ICHARG">     2</i>
    <i type="int" name="INIWAV">     1</i>
   </separator>
   <separator name="electronic spin" >
    <i type="int" name="ISPIN">     1</i>
    <i type="logical" name="LNONCOLLINEAR"> F  </i>
    <v name="MAGMOM">      1.00000000      1.00000000      1.00000000      1.00000000</v>
    <i name="NUPDOWN">     -1.00000000</i>
    <i type="logical" name="LSORBIT"> F  </i>
    <v name="SAXIS">      0.00000000      0.00000000      1.00000000</v>
    <i type="logical" name="LSPIRAL"> F  </i>
    <v name="QSPIRAL">      0.00000000      0.00000000      0.00000000</v>
    <i type="logical" name="LZEROZ"> F  </i>
   </separator>
   <separator name="electronic exchange-correlation" >
    <i type="logical" name="LASPH"> F  </i>
    <i type="logical" name="LMETAGGA"> F  </i>
   </separator>
   <separator name="electronic convergence" >
    <i type="int" name="NELM">    60</i>
    <i type="int" name="NELMDL">    -5</i>
    <i type="int" name="NELMIN">     4</i>
    <i name="ENINI">    400.00000000</i>
    <separator name="electronic convergence detail" >
     <i type="logical" name="LDIAG"> T  </i>
     <i type="logical" name="LSUBROT"> F  </i>
     <i name="WEIMIN">      0.00100000</i>
     <i name="EBREAK">      0.00000002</i>
     <i name="DEPER">      0.30000000</i>
     <i type="int" name="NRMM">     4</i>
     <i name="TIME">      0.40000000</i>
    </separator>
   </separator>
   <separator name="electronic mixer" >
    <i name="AMIX">      0.40000000</i>
    <i name="BMIX">      1.00000000</i>
    <i name="AMIN">      0.10000000</i>
    <i name="AMIX_MAG">      1.60000000</i>
    <i name="BMIX_MAG">      1.00000000</i>
    <separator name="electronic mixer details" >
     <i type="int" name="IMIX">     4</i>
     <i type="logical" name="MIXFIRST"> F  </i>
     <i type="int" name="MAXMIX">   -45</i>
     <i name="WC">    100.00000000</i>
     <i type="int" name="INIMIX">     1</i>
     <i type="int" name="MIXPRE">     1</i>
     <i type="int" name="MREMOVE">     5</i>
    </separator>
   </separator>
   <separator name="electronic dipolcorrection" >
    <i type="logical" name="LDIPOL"> F  </i>
    <i type="logical" name="LMONO"> F  </i>
    <i type="int" name="IDIPOL">     0</i>
    <i name="EPSILON">      1.00000000</i>
    <v name="DIPOL">   -100.00000000   -100.00000000   -100.00000000</v>
    <i name="EFIELD">      0.00000000</i>
   </separator>
  </separator>
  <separator name="grids" >
   <i type="int" name="NGX">    24</i>
   <i type="int" name="NGY">    24</i>
   <i type="int" name="NGZ">    24</i>
   <i type="int" name="NGXF">    48</i>
   <i type="int" name="NGYF">    48</i>
   <i type="int" name="NGZF">    48</i>
   <i type="logical" name="ADDGRID"> F  </i>
  </separator>
  <separator name="ionic" >
   <i type="int" name="NSW">   100</i>
   <i type="int" name="IBRION">     2</i>
   <i type="int" name="MDALGO">     0</i>
   <i type="int" name="ISIF">     4</i>
   <i name="PSTRESS">      0.00000000</i>
   <i name="EDIFFG">      0.00001000</i>
   <i type="int" name="NFREE">     1</i>
   <i name="POTIM">      0.50000000</i>
   <i name="SMASS">     -3.00000000</i>
   <i name="SCALEE">      1.00000000</i>
  </separator>
  <separator name="ionic md" >
   <i name="TEBEG">      0.00010000</i>
   <i name="TEEND">      0.00010000</i>
   <i type="int" name="NBLOCK">     1</i>
   <i type="int" name="KBLOCK">   100</i>
   <i type="int" name="NPACO">   256</i>
   <i name="APACO">     10.00000000</i>
  </separator>
  <separator name="symmetry" >
   <i type="int" name="ISYM">     2</i>
   <i name="SYMPREC">      0.00001000</i>
  </separator>
  <separator name="dos" >
   <i type="int" name="LORBIT">     0</i>
   <v name="RWIGS">     -1.00000000</v>
   <i type="int" name="NEDOS">   301</i>
   <i name="EMIN">     10.00000000</i>
   <i name="EMAX">    -10.00000000</i>
   <i name="EFERMI">      0.00000000</i>
  </separator>
  <separator name="writing" >
   <i type="int" name="NWRITE">     2</i>
   <i type="logical" name="LWAVE"> F  </i>
   <i type="logical" name="LDOWNSAMPLE"> F  </i>
   <i type="logical" name="LCHARG"> F  </i>
   <i type="logical" name="LPARD"> F  </i>
   <i type="logical" name="LVTOT"> F  </i>
   <i type="logical" name="LVHAR"> F  </i>
   <i type="logical" name="LELF"> F  </i>
   <i type="logical" name="LOPTICS"> F  </i>
   <v name="STM">      0.00000000      0.00000000      0.00000000      0.00000000      0.00000000      0.00000000      0.00000000</v>
  </separator>
  <separator name="performance" >
   <i type="int" name="NPAR">    14</i>
   <i type="int" name="NSIM">     4</i>
   <i type="int" name="NBLK">    -1</i>
   <i type="logical" name="LPLANE"> T  </i>
   <i type="logical" name="LSCALAPACK"> T  </i>
   <i type="logical" name="LSCAAWARE"> F  </i>
   <i type="logical" name="LSCALU"> F  </i>
   <i type="logical" name="LASYNC"> F  </i>
   <i type="logical" name="LORBITALREAL"> F  </i>
  </separator>
  <separator name="miscellaneous" >
   <i type="int" name="IDIOT">     3</i>
   <i type="int" name="PHON_NSTRUCT">    -1</i>
   <i type="logical" name="LMUSIC"> F  </i>
   <v name="POMASS">     26.98100000</v>
   <v name="DARWINR">      0.00000000</v>
   <v name="DARWINV">      1.00000000</v>
   <i type="logical" name="LCORR"> T  </i>
  </separator>
  <i type="logical" name="GGA_COMPAT"> T  </i>
  <i type="logical" name="LBERRY"> F  </i>
  <i type="int" name="ICORELEVEL">     0</i>
  <i type="logical" name="LDAU"> F  </i>
  <i type="int" name="I_CONSTRAINED_M">     0</i>
  <separator name="electronic exchange-correlation" >
   <i type="string" name="GGA">--</i>
   <i type="int" name="VOSKOWN">     0</i>
   <i type="logical" name="LHFCALC"> F  </i>
   <i type="string" name="PRECFOCK"></i>
   <i type="logical" name="LSYMGRAD"> F  </i>
   <i type="logical" name="LHFONE"> F  </i>
   <i type="logical" name="LRHFCALC"> F  </i>
   <i type="logical" name="LTHOMAS"> F  </i>
   <i type="logical" name="LMODELHF"> F  </i>
   <i type="logical" name="LFOCKACE"> F  </i>
   <i name="ENCUT4O">     -1.00000000</i>
   <i type="int" name="EXXOEP">     0</i>
   <i type="int" name="FOURORBIT">     0</i>
   <i name="AEXX">      0.00000000</i>
   <i name="HFALPHA">      0.00000000</i>
   <i name="MCALPHA">      0.00000000</i>
   <i name="ALDAX">      1.00000000</i>
   <i name="AGGAX">      1.00000000</i>
   <i name="ALDAC">      1.00000000</i>
   <i name="AGGAC">      1.00000000</i>
   <i type="int" name="NKREDX">     1</i>
   <i type="int" name="NKREDY">     1</i>
   <i type="int" name="NKREDZ">     1</i>
   <i type="logical" name="SHIFTRED"> F  </i>
   <i type="logical" name="ODDONLY"> F  </i>
   <i type="logical" name="EVENONLY"> F  </i>
   <i type="int" name="LMAXFOCK">     0</i>
   <i type="int" name="NMAXFOCKAE">     0</i>
   <i type="logical" name="LFOCKAEDFT"> F  </i>
   <i name="HFSCREEN">      0.00000000</i>
   <i name="HFSCREENC">      0.00000000</i>
   <i type="int" name="NBANDSGWLOW">     0</i>
  </separator>
  <separator name="vdW DFT" >
   <i type="logical" name="LUSE_VDW"> F  </i>
   <i type="int" name="IVDW_NL">     1</i>
   <i type="logical" name="LSPIN_VDW"> F  </i>
   <i name="Zab_VDW">     -0.84910000</i>
   <i name="PARAM1">      0.12340000</i>
   <i name="PARAM2">      1.00000000</i>
   <i name="PARAM3">      0.00000000</i>
  </separator>
  <separator name="model GW" >
   <i type="int" name="MODEL_GW">     0</i>
   <i name="MODEL_EPS0">      7.90642446</i>
   <i name="MODEL_ALPHA">      1.00000000</i>
  </separator>
  <separator name="linear response parameters" >
   <i type="logical" name="LEPSILON"> F  </i>
   <i type="logical" name="LRPA"> F  </i>
   <i type="logical" name="LNABLA"> F  </i>
   <i type="logical" name="LVEL"> F  </i>
   <i name="CSHIFT">      0.10000000</i>
   <i name="OMEGAMAX">     -1.00000000</i>
   <i name="DEG_THRESHOLD">      0.00200000</i>
   <i name="RTIME">     -0.10000000</i>
   <i name="WPLASMAI">      0.00000000</i>
   <v name="DFIELD">      0.00000000      0.00000000      0.00000000</v>
   <v name="WPLASMA">      0.00000000      0.00000000      0.00000000      0.00000000      0.00000000      0.00000000      0.00000000      0.00000000      0.00000000</v>
  </separator>
  <separator name="orbital magnetization" >
   <i type="logical" name="NUCIND"> F  </i>
   <v name="MAGPOS">      0.00000000      0.00000000      0.00000000</v>
   <i type="logical" name="LNICSALL"> T  </i>
   <i type="logical" name="ORBITALMAG"> F  </i>
   <i type="logical" name="LMAGBLOCH"> F  </i>
   <i type="logical" name="LCHIMAG"> F  </i>
   <i type="logical" name="LGAUGE"> T  </i>
   <i type="int" name="MAGATOM">     0</i>
   <v name="MAGDIPOL">      0.00000000      0.00000000      0.00000000</v>
   <v name="AVECCONST">      0.00000000      0.00000000      0.00000000</v>
  </separator>
  <separator name="response functions" >
   <i type="logical" name="LALL_IN_ONE"> F  </i>
   <i type="int" name="IALL_IN_ONE">    -1</i>
   <i type="int" name="NBANDS_WAVE">    -1</i>
   <i type="logical" name="LFINITE_TEMPERATURE"> F  </i>
   <i type="logical" name="LADDER"> F  </i>
   <i type="logical" name="LRPAFORCE"> F  </i>
   <i type="logical" name="LFXC"> F  </i>
   <i type="logical" name="LHARTREE"> T  </i>
   <i type="int" name="IBSE">     0</i>
   <v type="int" name="KPOINT">    -1     0     0     0</v>
   <i type="logical" name="LTCTC"> F  </i>
   <i type="logical" name="LTCTE"> F  </i>
   <i type="logical" name="LTETE"> F  </i>
   <i type="logical" name="LTRIPLET"> F  </i>
   <i type="logical" name="LFXCEPS"> F  </i>
   <i type="logical" name="LFXHEG"> F  </i>
   <i type="int" name="NATURALO">     2</i>
   <i type="logical" name="LHOLEGF"> F  </i>
   <i type="logical" name="L2ORDER"> F  </i>
   <i type="logical" name="LDMP1"> F  </i>
   <i type="logical" name="LMP2LT"> F  </i>
   <i type="logical" name="LSMP2LT"> F  </i>
   <i type="logical" name="LGWLF"> F  </i>
   <i name="ENCUTGW">     -1.60000002</i>
   <i name="ENCUTGWSOFT">     -1.60000002</i>
   <i name="ENCUTLF">     -1.00000000</i>
   <i type="logical" name="LESF_SPLINES"> F  </i>
   <i type="int" name="LMAXMP2">    -1</i>
   <i name="SCISSOR">      0.00000000</i>
   <i type="int" name="NOMEGA">     0</i>
   <i type="int" name="NOMEGAR">     0</i>
   <i type="int" name="NBANDSGW">    -1</i>
   <i type="int" name="NBANDSO">    -1</i>
   <i type="int" name="NBANDSV">    -1</i>
   <i type="int" name="NELMGW">     1</i>
   <i type="int" name="NELMHF">     1</i>
   <i type="int" name="DIM">     3</i>
   <i type="int" name="IESPILON">     4</i>
   <i type="int" name="ANTIRES">     0</i>
   <i name="OMEGAMAX">    -30.00000000</i>
   <i name="OMEGAMIN">    -30.00000000</i>
   <i name="OMEGATL">   -200.00000000</i>
   <i type="int" name="OMEGAGRID">     0</i>
   <i name="CSHIFT">     -0.10000000</i>
   <i type="logical" name="LSELFENERGY"> F  </i>
   <i type="logical" name="LSPECTRAL"> F  </i>
   <i type="logical" name="LSPECTRALGW"> F  </i>
   <i type="logical" name="LSINGLES"> F  </i>
   <i type="logical" name="LFERMIGW"> F  </i>
   <i type="logical" name="ODDONLYGW"> F  </i>
   <i type="logical" name="EVENONLYGW"> F  </i>
   <i type="int" name="NKREDLFX">     1</i>
   <i type="int" name="NKREDLFY">     1</i>
   <i type="int" name="NKREDLFZ">     1</i>
   <i type="int" name="MAXMEM">  2800</i>
   <i type="int" name="TELESCOPE">     0</i>
   <i type="int" name="NTAUPAR">    -1</i>
   <i type="int" name="NOMEGAPAR">    -1</i>
   <i name="DAMP_NEWTON">      0.80000001</i>
   <i name="LAMBDA">      1.00000000</i>
  </separator>
  <separator name="External order field" >
   <i name="OFIELD_KAPPA">      0.00000000</i>
   <v name="OFIELD_K">      0.00000000      0.00000000      0.00000000</v>
   <i name="OFIELD_Q6_NEAR">      0.00000000</i>
   <i name="OFIELD_Q6_FAR">      0.00000000</i>
   <i name="OFIELD_A">      0.00000000</i>
  </separator>
  <separator name="optional k-points parameters" >
   <i type="int" name="KPOINTS_OPT_MODE">     1</i>
   <i type="logical" name="LKPOINTS_OPT"> F  </i>
  </separator>
 </parameters>
 <atominfo>
  <atoms>       4 </atoms>
  <types>       1 </types>
  <array name="atoms" >
   <dimension dim="1">ion</dimension>
   <field type="string">element</field>
   <field type="int">atomtype</field>
   <set>
    <rc><c>Al</c><c>   1</c></rc>
    <rc><c>Al</c><c>   1</c></rc>
    <rc><c>Al</c><c>   1</c></rc>
    <rc><c>Al</c><c>   1</c></rc>
   </set>
  </array>
  <array name="atomtypes" >
   <dimension dim="1">type</dimension>
   <field type="int">atomspertype</field>
   <field type="string">element</field>
   <field>mass</field>
   <field>valence</field>
   <field type="string">pseudopotential</field>
   <set>
    <rc><c>   4</c><c>Al</c><c>     26.98100000</c><c>      3.00000000</c><c>  PAW_PBE Al 04Jan2001                  </c></rc>
   </set>
  </array>
 </atominfo>
 <structure name="initialpos" >
  <crystal>
   <varray name="basis" >
    <v>       3.74941019       0.00000000       0.00000000 </v>
    <v>      -0.00000000       3.74941019       0.00000000 </v>
    <v>       0.00000000       0.00000000       3.74941019 </v>
   </varray>
   <i name="volume">     52.70949642 </i>
   <varray name="rec_basis" >
    <v>       0.26670862       0.00000000      -0.00000000 </v>
    <v>       0.00000000       0.26670862       0.00000000 </v>
    <v>      -0.00000000      -0.00000000       0.26670862 </v>
   </varray>
  </crystal>
  <varray name="positions" >
   <v>       0.00000000       0.00000000       0.00000000 </v>
   <v>       0.00000000       0.50000000       0.50000000 </v>
   <v>       0.50000000       0.00000000       0.50000000 </v>
   <v>       0.50000000       0.50000000       0.00000000 </v>
  </varray>
 </structure>
 <calculation>
  <scstep>
   <time name="dav">   11.72    5.87</time>
   <time name="total">   11.76    5.90</time>
   <energy>
    <i name="alphaZ">     -1.01956881 </i>
    <i name="ewald">   -316.95083668 </i>
    <i name="hartreedc">     -0.24834982 </i>
    <i name="XCdc">   -103.28034280 </i>
    <i name="pawpsdc">    264.80062850 </i>
    <i name="pawaedc">   -136.98248303 </i>
    <i name="eentropy">      0.00036904 </i>
    <i name="bandstr">     79.43266294 </i>
    <i name="atom">    214.15261729 </i>
    <i name="e_fr_energy">     -0.09530335 </i>
    <i name="e_wo_entrp">     -0.09567239 </i>
    <i name="e_0_energy">     -0.09542637 </i>
   </energy>
  </scstep>
  <scstep>
   <time name="dav">   16.99    8.55</time>
   <time name="total">   17.00    8.55</time>
   <energy>
    <i name="e_fr_energy">    -14.07164647 </i>
    <i name="e_wo_entrp">    -14.07210445 </i>
    <i name="e_0_energy">    -14.07179913 </i>
   </energy>
  </scstep>
  <scstep>
   <time name="dav">   14.68    7.36</time>
   <time name="total">   14.68    7.37</time>
   <energy>
    <i name="e_fr_energy">    -14.13499292 </i>
    <i name="e_wo_entrp">    -14.13541099 </i>
    <i name="e_0_energy">    -14.13513228 </i>
   </energy>
  </scstep>
  <scstep>
   <time name="dav">   19.87    9.96</time>
   <time name="total">   19.87    9.96</time>
   <energy>
    <i name="e_fr_energy">    -14.13512887 </i>
    <i name="e_wo_entrp">    -14.13554754 </i>
    <i name="e_0_energy">    -14.13526843 </i>
   </energy>
  </scstep>
  <scstep>
   <time name="dav">   15.21    7.62</time>
   <time name="total">   15.64    7.84</time>
   <energy>
    <i name="e_fr_energy">    -14.13512892 </i>
    <i name="e_wo_entrp">    -14.13554759 </i>
    <i name="e_0_energy">    -14.13526848 </i>
   </energy>
  </scstep>
  <scstep>
   <time name="diag">    1.91    0.95</time>
   <time name="diis">    3.37    1.70</time>
   <time name="orth">    0.30    0.15</time>
   <time name="total">    6.04    3.04</time>
   <energy>
    <i name="e_fr_energy">    -14.06400707 </i>
    <i name="e_wo_entrp">    -14.06436513 </i>
    <i name="e_0_energy">    -14.06412642 </i>
   </energy>
  </scstep>
  <scstep>
   <time name="diag">    1.92    0.96</time>
   <time name="diis">    3.38    1.71</time>
   <time name="orth">    0.14    0.07</time>
   <time name="total">    5.90    2.97</time>
   <energy>
    <i name="e_fr_energy">    -14.01377752 </i>
    <i name="e_wo_entrp">    -14.01405102 </i>
    <i name="e_0_energy">    -14.01386869 </i>
   </energy>
  </scstep>
  <scstep>
   <time name="diag">    1.93    0.97</time>
   <time name="diis">    3.38    1.70</time>
   <time name="orth">    0.14    0.07</time>
   <time name="total">    5.91    2.97</time>
   <energy>
    <i name="e_fr_energy">    -14.01375238 </i>
    <i name="e_wo_entrp">    -14.01402402 </i>
    <i name="e_0_energy">    -14.01384292 </i>
   </energy>
  </scstep>
  <scstep>
   <time name="diag">    1.89    0.95</time>
   <time name="diis">    3.39    1.72</time>
   <time name="orth">    0.14    0.07</time>
   <time name="total">    5.88    2.97</time>
   <energy>
    <i name="e_fr_energy">    -14.01375438 </i>
    <i name="e_wo_entrp">    -14.01402465 </i>
    <i name="e_0_energy">    -14.01384447 </i>
   </energy>
  </scstep>
  <scstep>
   <time name="diag">    1.98    0.99</time>
   <time name="diis">    3.39    1.72</time>
   <time name="orth">    0.15    0.07</time>
   <time name="total">    5.97    3.01</time>
   <energy>
    <i name="e_fr_energy">    -14.01375264 </i>
    <i name="e_wo_entrp">    -14.01402260 </i>
    <i name="e_0_energy">    -14.01384263 </i>
   </energy>
  </scstep>
  <scstep>
   <time name="diag">    1.90    0.95</time>
   <time name="diis">    3.37    1.70</time>
   <time name="orth">    0.16    0.08</time>
   <time name="total">    5.92    2.97</time>
   <energy>
    <i name="e_fr_energy">    -14.01375414 </i>
    <i name="e_wo_entrp">    -14.01402431 </i>
    <i name="e_0_energy">    -14.01384420 </i>
   </energy>
  </scstep>
  <scstep>
   <time name="diag">    1.92    0.96</time>
   <time name="diis">    2.66    1.61</time>
   <time name="orth">    0.14    0.07</time>
   <time name="total">    4.76    2.67</time>
   <energy>
    <i name="alphaZ">     -1.01956881 </i>
    <i name="ewald">   -316.95083668 </i>
    <i name="hartreedc">     -0.68076637 </i>
    <i name="XCdc">   -102.63940639 </i>
    <i name="pawpsdc">    861.01387558 </i>
    <i name="pawaedc">   -733.44926137 </i>
    <i name="eentropy">      0.00027015 </i>
    <i name="bandstr">     65.55932308 </i>
    <i name="atom">    214.15261729 </i>
    <i name="e_fr_energy">    -14.01375353 </i>
    <i name="e_wo_entrp">    -14.01402368 </i>
    <i name="e_0_energy">    -14.01384358 </i>
   </energy>
  </scstep>
  <structure>
   <crystal>
    <varray name="basis" >
     <v>       3.74941019       0.00000000       0.00000000 </v>
     <v>      -0.00000000       3.74941019       0.00000000 </v>
     <v>       0.00000000       0.00000000       3.74941019 </v>
    </varray>
    <i name="volume">     52.70949642 </i>
    <varray name="rec_basis" >
     <v>       0.26670862       0.00000000      -0.00000000 </v>
     <v>       0.00000000       0.26670862       0.00000000 </v>
     <v>      -0.00000000      -0.00000000       0.26670862 </v>
    </varray>
   </crystal>
   <varray name="positions" >
    <v>       0.00000000       0.00000000       0.00000000 </v>
    <v>       0.00000000       0.50000000       0.50000000 </v>
    <v>       0.50000000       0.00000000       0.50000000 </v>
    <v>       0.50000000       0.50000000       0.00000000 </v>
   </varray>
  </structure>
  <varray name="forces" >
   <v>      -0.00000000      -0.00000000       0.00000000 </v>
   <v>      -0.00000000      -0.00000000      -0.00000000 </v>
   <v>      -0.00000000       0.00000000      -0.00000000 </v>
   <v>       0.00000000       0.00000000       0.00000000 </v>
  </varray>
  <varray name="stress" >
   <v>     287.33436796      -0.00000000       0.00000000 </v>
   <v>      -0.00000000     287.33436796       0.00000000 </v>
   <v>       0.00000000       0.00000000     287.33436796 </v>
  </varray>
  <energy>
   <i name="e_fr_energy">    -14.01375353 </i>
   <i name="e_wo_entrp">    -14.01402368 </i>
   <i name="e_0_energy">    -14.01384358 </i>
  </energy>
  <time name="totalsc">  129.61   65.36</time>
  <eigenvalues>
   <array>
    <dimension dim="1">band</dimension>
    <dimension dim="2">kpoint</dimension>
    <dimension dim="3">spin</dimension>
    <field>eigene</field>
    <field>occ</field>
    <set>
     <set comment="spin 1">
      <set comment="kpoint 1">
       <r>   -2.2224    1.0000 </r>
       <r>    7.0940    1.0000 </r>
       <r>    7.0940    1.0000 </r>
       <r>    7.0940    1.0000 </r>
       <r>    8.8204    1.0000 </r>
       <r>    8.8204    1.0000 </r>
       <r>    8.8204    1.0000 </r>
       <r>   15.8519   -0.0000 </r>
       <r>   15.8519   -0.0000 </r>
       <r>   15.8519   -0.0000 </r>
       <r>   17.3280    0.0000 </r>
       <r>   17.3280    0.0000 </r>
       <r>   17.3280    0.0000 </r>
       <r>   17.3280    0.0000 </r>
      </set>
      <set comment="kpoint 2">
       <r>   -2.1985    1.0000 </r>
       <r>    6.7053    1.0000 </r>
       <r>    7.1151    1.0000 </r>
       <r>    7.1151    1.0000 </r>
       <r>    8.8413    1.0000 </r>
       <r>    8.8413    1.0000 </r>
       <r>    9.2479    1.0000 </r>
       <r>   15.4393   -0.0000 </r>
       <r>   15.4393   -0.0000 </r>
       <r>   15.8755   -0.0000 </r>
       <r>   17.1835    0.0000 </r>
       <r>   17.1835    0.0000 </r>
       <r>   17.3470    0.0000 </r>
       <r>   17.3470    0.0000 </r>
      </set>
      <set comment="kpoint 3">
       <r>   -2.1270    1.0000 </r>
       <r>    5.9786    1.0000 </r>
       <r>    7.1784    1.0000 </r>
       <r>    7.1784    1.0000 </r>
       <r>    8.9033    1.0000 </r>
       <r>    8.9033    1.0000 </r>
       <r>   10.0907    1.0032 </r>
       <r>   14.7115   -0.0000 </r>
       <r>   14.7115   -0.0000 </r>
       <r>   15.9464   -0.0000 </r>
       <r>   16.8041    0.0000 </r>
       <r>   16.8041    0.0000 </r>
       <r>   17.4041    0.0000 </r>
       <r>   17.4041    0.0000 </r>
      </set>
      <set comment="kpoint 4">
       <r>   -2.0080    1.0000 </r>
       <r>    5.2040    1.0000 </r>
       <r>    7.2840    1.0000 </r>
       <r>    7.2840    1.0000 </r>
       <r>    9.0056    1.0000 </r>
       <r>    9.0056    1.0000 </r>
       <r>   11.0592   -0.0008 </r>
       <r>   13.9565   -0.0000 </r>
       <r>   13.9565   -0.0000 </r>
       <r>   16.0645    0.0000 </r>
       <r>   16.2899    0.0000 </r>
       <r>   16.2899    0.0000 </r>
       <r>   17.4993    0.0000 </r>
       <r>   17.4993    0.0000 </r>
      </set>
      <set comment="kpoint 5">
       <r>   -1.8415    1.0000 </r>
       <r>    4.4417    1.0000 </r>
       <r>    7.4319    1.0000 </r>
       <r>    7.4319    1.0000 </r>
       <r>    9.1459    1.0000 </r>
       <r>    9.1459    1.0000 </r>
       <r>   12.0928   -0.0000 </r>
       <r>   13.2244   -0.0000 </r>
       <r>   13.2244   -0.0000 </r>
       <r>   15.7187   -0.0000 </r>
       <r>   15.7187   -0.0000 </r>
       <r>   16.2285    0.0000 </r>
       <r>   17.6325    0.0000 </r>
       <r>   17.6325    0.0000 </r>
      </set>
      <set comment="kpoint 6">
       <r>   -1.6279    1.0000 </r>
       <r>    3.7086    1.0000 </r>
       <r>    7.6222    1.0000 </r>
       <r>    7.6222    1.0000 </r>
       <r>    9.3206    1.0000 </r>
       <r>    9.3206    1.0000 </r>
       <r>   12.5272   -0.0000 </r>
       <r>   12.5272   -0.0000 </r>
       <r>   13.1746   -0.0000 </r>
       <r>   15.1374   -0.0000 </r>
       <r>   15.1374   -0.0000 </r>
       <r>   16.4407    0.0000 </r>
       <r>   17.8040    0.0000 </r>
       <r>   17.8040    0.0000 </r>
      </set>
      <set comment="kpoint 7">
       <r>   -1.3673    1.0000 </r>
       <r>    3.0110    1.0000 </r>
       <r>    7.8549    1.0000 </r>
       <r>    7.8549    1.0000 </r>
       <r>    9.5237    1.0000 </r>
       <r>    9.5237    1.0000 </r>
       <r>   11.8695   -0.0000 </r>
       <r>   11.8695   -0.0000 </r>
       <r>   14.2978   -0.0000 </r>
       <r>   14.5758   -0.0000 </r>
       <r>   14.5758   -0.0000 </r>
       <r>   16.6998    0.0000 </r>
       <r>   18.0138    0.0000 </r>
       <r>   18.0138    0.0000 </r>
      </set>
      <set comment="kpoint 8">
       <r>   -1.0601    1.0000 </r>
       <r>    2.3522    1.0000 </r>
       <r>    8.1301    1.0000 </r>
       <r>    8.1301    1.0000 </r>
       <r>    9.7446    1.0000 </r>
       <r>    9.7446    1.0000 </r>
       <r>   11.2529   -0.0000 </r>
       <r>   11.2529   -0.0000 </r>
       <r>   14.0578   -0.0000 </r>
       <r>   14.0578   -0.0000 </r>
       <r>   15.4586   -0.0000 </r>
       <r>   17.0055    0.0000 </r>
       <r>   18.2618    0.0000 </r>
       <r>   18.2618    0.0000 </r>
      </set>
      <set comment="kpoint 9">
       <r>   -0.7068    1.0000 </r>
       <r>    1.7342    1.0000 </r>
       <r>    8.4479    1.0000 </r>
       <r>    8.4479    1.0000 </r>
       <r>    9.9655    1.0002 </r>
       <r>    9.9655    1.0002 </r>
       <r>   10.6786    0.0466 </r>
       <r>   10.6786    0.0466 </r>
       <r>   13.6090   -0.0000 </r>
       <r>   13.6090   -0.0000 </r>
       <r>   16.6543    0.0000 </r>
       <r>   17.3577    0.0000 </r>
       <r>   18.5479    0.0000 </r>
       <r>   18.5479    0.0000 </r>
      </set>
      <set comment="kpoint 10">
       <r>   -0.3077    1.0000 </r>
       <r>    1.1583    1.0000 </r>
       <r>    8.8084    1.0000 </r>
       <r>    8.8084    1.0000 </r>
       <r>   10.1469    1.0086 </r>
       <r>   10.1469    1.0086 </r>
       <r>   10.1562    1.0100 </r>
       <r>   10.1562    1.0100 </r>
       <r>   13.2643   -0.0000 </r>
       <r>   13.2643   -0.0000 </r>
       <r>   17.7564    0.0000 </r>
       <r>   17.8830    0.0000 </r>
       <r>   18.8726    0.0000 </r>
       <r>   18.8728    0.0000 </r>
      </set>
      <set comment="kpoint 11">
       <r>    0.1366    1.0000 </r>
       <r>    0.6255    1.0000 </r>
       <r>    9.2117    1.0000 </r>
       <r>    9.2117    1.0000 </r>
       <r>    9.6579    1.0000 </r>
       <r>    9.6579    1.0000 </r>
       <r>   10.2719    1.0334 </r>
       <r>   10.2719    1.0334 </r>
       <r>   13.0711   -0.0000 </r>
       <r>   13.0711   -0.0000 </r>
       <r>   18.2000    0.0000 </r>
       <r>   18.6886    0.0000 </r>
       <r>   19.1419    0.0000 </r>
       <r>   19.2352    0.0000 </r>
      </set>
      <set comment="kpoint 12">
       <r>   -2.1747    1.0000 </r>
       <r>    6.7266    1.0000 </r>
       <r>    6.7266    1.0000 </r>
       <r>    7.1362    1.0000 </r>
       <r>    8.8619    1.0000 </r>
       <r>    9.2683    1.0000 </r>
       <r>    9.2683    1.0000 </r>
       <r>   15.0865   -0.0000 </r>
       <r>   15.4618   -0.0000 </r>
       <r>   15.4618   -0.0000 </r>
       <r>   17.2030    0.0000 </r>
       <r>   17.2030    0.0000 </r>
       <r>   17.3666    0.0000 </r>
       <r>   17.8049    0.0000 </r>
      </set>
      <set comment="kpoint 13">
       <r>   -2.1032    1.0000 </r>
       <r>    6.0003    1.0000 </r>
       <r>    6.7907    1.0000 </r>
       <r>    7.1996    1.0000 </r>
       <r>    8.9232    1.0000 </r>
       <r>    9.3292    1.0000 </r>
       <r>   10.1103    1.0046 </r>
       <r>   14.4080   -0.0000 </r>
       <r>   14.7334   -0.0000 </r>
       <r>   15.5298   -0.0000 </r>
       <r>   16.8245    0.0000 </r>
       <r>   17.0992    0.0000 </r>
       <r>   17.2613    0.0000 </r>
       <r>   17.8644    0.0000 </r>
      </set>
      <set comment="kpoint 14">
       <r>   -1.9842    1.0000 </r>
       <r>    5.2260    1.0000 </r>
       <r>    6.8974    1.0000 </r>
       <r>    7.3052    1.0000 </r>
       <r>    9.0241    1.0000 </r>
       <r>    9.4295    1.0000 </r>
       <r>   11.0778   -0.0005 </r>
       <r>   13.6787   -0.0000 </r>
       <r>   13.9784   -0.0000 </r>
       <r>   15.6436   -0.0000 </r>
       <r>   16.3119    0.0000 </r>
       <r>   16.5920    0.0000 </r>
       <r>   17.3587    0.0000 </r>
       <r>   17.9638    0.0000 </r>
      </set>
      <set comment="kpoint 15">
       <r>   -1.8178    1.0000 </r>
       <r>    4.4640    1.0000 </r>
       <r>    7.0467    1.0000 </r>
       <r>    7.4531    1.0000 </r>
       <r>    9.1615    1.0000 </r>
       <r>    9.5671    1.0000 </r>
       <r>   12.1100   -0.0000 </r>
       <r>   12.9634   -0.0000 </r>
       <r>   13.2461   -0.0000 </r>
       <r>   15.7427   -0.0000 </r>
       <r>   15.8027   -0.0000 </r>
       <r>   16.0169    0.0000 </r>
       <r>   17.4954    0.0000 </r>
       <r>   18.1031    0.0000 </r>
      </set>
      <set comment="kpoint 16">
       <r>   -1.6042    1.0000 </r>
       <r>    3.7310    1.0000 </r>
       <r>    7.2384    1.0000 </r>
       <r>    7.6434    1.0000 </r>
       <r>    9.3305    1.0000 </r>
       <r>    9.7382    1.0000 </r>
       <r>   12.2827   -0.0000 </r>
       <r>   12.5489   -0.0000 </r>
       <r>   13.1895   -0.0000 </r>
       <r>   15.1641   -0.0000 </r>
       <r>   15.4294   -0.0000 </r>
       <r>   16.0070    0.0000 </r>
       <r>   17.6715    0.0000 </r>
       <r>   18.2824    0.0000 </r>
      </set>
      <set comment="kpoint 17">
       <r>   -1.3436    1.0000 </r>
       <r>    3.0336    1.0000 </r>
       <r>    7.4721    1.0000 </r>
       <r>    7.8761    1.0000 </r>
       <r>    9.5202    1.0000 </r>
       <r>    9.9363    1.0001 </r>
       <r>   11.6489   -0.0000 </r>
       <r>   11.8910   -0.0000 </r>
       <r>   14.3090   -0.0000 </r>
       <r>   14.6068   -0.0000 </r>
       <r>   14.8593   -0.0000 </r>
       <r>   16.2560    0.0000 </r>
       <r>   17.8877    0.0000 </r>
       <r>   18.5018    0.0000 </r>
      </set>
      <set comment="kpoint 18">
       <r>   -1.0365    1.0000 </r>
       <r>    2.3750    1.0000 </r>
       <r>    7.7473    1.0000 </r>
       <r>    8.1513    1.0000 </r>
       <r>    9.7045    1.0000 </r>
       <r>   10.1503    1.0091 </r>
       <r>   11.0828   -0.0004 </r>
       <r>   11.2744   -0.0000 </r>
       <r>   14.0962   -0.0000 </r>
       <r>   14.3286   -0.0000 </r>
       <r>   15.4632   -0.0000 </r>
       <r>   16.5496    0.0000 </r>
       <r>   18.1457    0.0000 </r>
       <r>   18.7614    0.0000 </r>
      </set>
      <set comment="kpoint 19">
       <r>   -0.6833    1.0000 </r>
       <r>    1.7572    1.0000 </r>
       <r>    8.0632    1.0000 </r>
       <r>    8.4692    1.0000 </r>
       <r>    9.7963    1.0000 </r>
       <r>   10.3601    1.0132 </r>
       <r>   10.6588    0.0877 </r>
       <r>   10.7000    0.0128 </r>
       <r>   13.6609   -0.0000 </r>
       <r>   13.8596   -0.0000 </r>
       <r>   16.6448    0.0000 </r>
       <r>   16.8877    0.0000 </r>
       <r>   18.4499    0.0000 </r>
       <r>   19.0730    0.0000 </r>
      </set>
      <set comment="kpoint 20">
       <r>   -0.2843    1.0000 </r>
       <r>    1.1814    1.0000 </r>
       <r>    8.4178    1.0000 </r>
       <r>    8.8297    1.0000 </r>
       <r>    9.6059    1.0000 </r>
       <r>   10.1683    1.0119 </r>
       <r>   10.5317    0.5444 </r>
       <r>   10.5408    0.5061 </r>
       <r>   13.3414   -0.0000 </r>
       <r>   13.4826   -0.0000 </r>
       <r>   17.2695    0.0000 </r>
       <r>   17.8309    0.0000 </r>
       <r>   18.6704    0.0000 </r>
       <r>   18.8209    0.0000 </r>
      </set>
      <set comment="kpoint 21">
       <r>    0.1599    1.0000 </r>
       <r>    0.6487    1.0000 </r>
       <r>    8.8070    1.0000 </r>
       <r>    9.2186    1.0000 </r>
       <r>    9.2330    1.0000 </r>
       <r>    9.6792    1.0000 </r>
       <r>   10.6016    0.2606 </r>
       <r>   10.6198    0.1975 </r>
       <r>   13.1900   -0.0000 </r>
       <r>   13.2427   -0.0000 </r>
       <r>   17.6947    0.0000 </r>
       <r>   18.1619    0.0000 </r>
       <r>   18.8496    0.0000 </r>
       <r>   19.4201    0.0000 </r>
      </set>
      <set comment="kpoint 22">
       <r>   -2.0318    1.0000 </r>
       <r>    6.0654    1.0000 </r>
       <r>    6.0654    1.0000 </r>
       <r>    7.2629    1.0000 </r>
       <r>    8.9823    1.0000 </r>
       <r>   10.1690    1.0120 </r>
       <r>   10.1690    1.0120 </r>
       <r>   13.7815   -0.0000 </r>
       <r>   14.8003   -0.0000 </r>
       <r>   14.8003   -0.0000 </r>
       <r>   16.8862    0.0000 </r>
       <r>   16.8862    0.0000 </r>
       <r>   17.4825    0.0000 </r>
       <r>   18.5047    0.0000 </r>
      </set>
      <set comment="kpoint 23">
       <r>   -1.9128    1.0000 </r>
       <r>    5.2920    1.0000 </r>
       <r>    6.1739    1.0000 </r>
       <r>    7.3686    1.0000 </r>
       <r>    9.0780    1.0000 </r>
       <r>   10.2651    1.0323 </r>
       <r>   11.1331   -0.0001 </r>
       <r>   13.0847   -0.0000 </r>
       <r>   14.0444   -0.0000 </r>
       <r>   14.9112   -0.0000 </r>
       <r>   16.3783    0.0000 </r>
       <r>   16.9894    0.0000 </r>
       <r>   17.2215    0.0000 </r>
       <r>   18.8290    0.0000 </r>
      </set>
      <set comment="kpoint 24">
       <r>   -1.7465    1.0000 </r>
       <r>    4.5308    1.0000 </r>
       <r>    6.3255    1.0000 </r>
       <r>    7.5165    1.0000 </r>
       <r>    9.2054    1.0000 </r>
       <r>   10.3961    0.9700 </r>
       <r>   12.1605   -0.0000 </r>
       <r>   12.3971   -0.0000 </r>
       <r>   13.3114   -0.0000 </r>
       <r>   15.0663   -0.0000 </r>
       <r>   15.8151   -0.0000 </r>
       <r>   16.6879    0.0000 </r>
       <r>   17.1347    0.0000 </r>
       <r>   18.9719    0.0000 </r>
      </set>
      <set comment="kpoint 25">
       <r>   -1.5330    1.0000 </r>
       <r>    3.7985    1.0000 </r>
       <r>    6.5200    1.0000 </r>
       <r>    7.7069    1.0000 </r>
       <r>    9.3524    1.0000 </r>
       <r>   10.5571    0.4370 </r>
       <r>   11.7521   -0.0000 </r>
       <r>   12.6138   -0.0000 </r>
       <r>   13.2325   -0.0000 </r>
       <r>   15.2455   -0.0000 </r>
       <r>   15.2656   -0.0000 </r>
       <r>   16.1063    0.0000 </r>
       <r>   17.3234    0.0000 </r>
       <r>   19.1560    0.0000 </r>
      </set>
      <set comment="kpoint 26">
       <r>   -1.2727    1.0000 </r>
       <r>    3.1016    1.0000 </r>
       <r>    6.7567    1.0000 </r>
       <r>    7.9396    1.0000 </r>
       <r>    9.4885    1.0000 </r>
       <r>   10.7391   -0.0235 </r>
       <r>   11.1864   -0.0000 </r>
       <r>   11.9558   -0.0000 </r>
       <r>   14.3395   -0.0000 </r>
       <r>   14.7026   -0.0000 </r>
       <r>   15.5088   -0.0000 </r>
       <r>   15.5301   -0.0000 </r>
       <r>   17.5584    0.0000 </r>
       <r>   19.3836    0.0000 </r>
      </set>
      <set comment="kpoint 27">
       <r>   -0.9658    1.0000 </r>
       <r>    2.4435    1.0000 </r>
       <r>    7.0351    1.0000 </r>
       <r>    8.2150    1.0000 </r>
       <r>    9.5274    1.0000 </r>
       <r>   10.7857   -0.0355 </r>
       <r>   10.9257   -0.0103 </r>
       <r>   11.3389   -0.0000 </r>
       <r>   14.2172   -0.0000 </r>
       <r>   14.9840   -0.0000 </r>
       <r>   15.4701   -0.0000 </r>
       <r>   15.7957   -0.0000 </r>
       <r>   17.8473    0.0000 </r>
       <r>   19.0002    0.0000 </r>
      </set>
      <set comment="kpoint 28">
       <r>   -0.6128    1.0000 </r>
       <r>    1.8261    1.0000 </r>
       <r>    7.3541    1.0000 </r>
       <r>    8.5329    1.0000 </r>
       <r>    9.3331    1.0000 </r>
       <r>   10.6788    0.0462 </r>
       <r>   10.7644   -0.0331 </r>
       <r>   11.0864   -0.0004 </r>
       <r>   13.8285   -0.0000 </r>
       <r>   14.4860   -0.0000 </r>
       <r>   16.1262    0.0000 </r>
       <r>   16.5990    0.0000 </r>
       <r>   18.2127    0.0000 </r>
       <r>   18.4185    0.0000 </r>
      </set>
      <set comment="kpoint 29">
       <r>   -0.2140    1.0000 </r>
       <r>    1.2507    1.0000 </r>
       <r>    7.7117    1.0000 </r>
       <r>    8.8936    1.0000 </r>
       <r>    8.9537    1.0000 </r>
       <r>   10.2324    1.0254 </r>
       <r>   10.8024   -0.0346 </r>
       <r>   11.1724   -0.0000 </r>
       <r>   13.5921   -0.0000 </r>
       <r>   14.0578   -0.0000 </r>
       <r>   16.5000    0.0000 </r>
       <r>   17.6407    0.0000 </r>
       <r>   17.8767    0.0000 </r>
       <r>   18.7378    0.0000 </r>
      </set>
      <set comment="kpoint 30">
       <r>    0.2299    1.0000 </r>
       <r>    0.7184    1.0000 </r>
       <r>    8.1045    1.0000 </r>
       <r>    8.5250    1.0000 </r>
       <r>    9.2971    1.0000 </r>
       <r>    9.7433    1.0000 </r>
       <r>   10.9910   -0.0034 </r>
       <r>   11.1376   -0.0001 </r>
       <r>   13.5602   -0.0000 </r>
       <r>   13.7323   -0.0000 </r>
       <r>   16.9169    0.0000 </r>
       <r>   17.3759    0.0000 </r>
       <r>   18.4106    0.0000 </r>
       <r>   18.9610    0.0000 </r>
      </set>
      <set comment="kpoint 31">
       <r>   -1.7940    1.0000 </r>
       <r>    5.4020    1.0000 </r>
       <r>    5.4020    1.0000 </r>
       <r>    7.4743    1.0000 </r>
       <r>    9.1628    1.0000 </r>
       <r>   11.2231   -0.0000 </r>
       <r>   11.2231   -0.0000 </r>
       <r>   12.4156   -0.0000 </r>
       <r>   14.1540   -0.0000 </r>
       <r>   14.1540   -0.0000 </r>
       <r>   16.4897    0.0000 </r>
       <r>   16.4897    0.0000 </r>
       <r>   17.6759    0.0000 </r>
       <r>   19.0313    0.0000 </r>
      </set>
      <set comment="kpoint 32">
       <r>   -1.6279    1.0000 </r>
       <r>    4.6420    1.0000 </r>
       <r>    5.5556    1.0000 </r>
       <r>    7.6223    1.0000 </r>
       <r>    9.2660    1.0000 </r>
       <r>   11.3436   -0.0000 </r>
       <r>   11.7625   -0.0000 </r>
       <r>   12.2410   -0.0000 </r>
       <r>   13.4204   -0.0000 </r>
       <r>   14.3076   -0.0000 </r>
       <r>   15.9381   -0.0000 </r>
       <r>   16.6480    0.0000 </r>
       <r>   17.4497    0.0000 </r>
       <r>   19.6443    0.0000 </r>
      </set>
      <set comment="kpoint 33">
       <r>   -1.4146    1.0000 </r>
       <r>    3.9107    1.0000 </r>
       <r>    5.7526    1.0000 </r>
       <r>    7.8127    1.0000 </r>
       <r>    9.3558    1.0000 </r>
       <r>   11.1831   -0.0000 </r>
       <r>   11.4870   -0.0000 </r>
       <r>   12.7221   -0.0000 </r>
       <r>   13.2977   -0.0000 </r>
       <r>   14.5046   -0.0000 </r>
       <r>   15.3858   -0.0000 </r>
       <r>   16.8571    0.0000 </r>
       <r>   16.9339    0.0000 </r>
       <r>   19.4981    0.0000 </r>
      </set>
      <set comment="kpoint 34">
       <r>   -1.1546    1.0000 </r>
       <r>    3.2148    1.0000 </r>
       <r>    5.9926    1.0000 </r>
       <r>    8.0456    1.0000 </r>
       <r>    9.3481    1.0000 </r>
       <r>   10.7705   -0.0343 </r>
       <r>   11.6383   -0.0000 </r>
       <r>   12.0636   -0.0000 </r>
       <r>   14.3775   -0.0000 </r>
       <r>   14.7452   -0.0000 </r>
       <r>   14.8724   -0.0000 </r>
       <r>   16.3738    0.0000 </r>
       <r>   17.1256    0.0000 </r>
       <r>   18.8382    0.0000 </r>
      </set>
      <set comment="kpoint 35">
       <r>   -0.8480    1.0000 </r>
       <r>    2.5575    1.0000 </r>
       <r>    6.2749    1.0000 </r>
       <r>    8.3211    1.0000 </r>
       <r>    9.1227    1.0000 </r>
       <r>   10.6467    0.1177 </r>
       <r>   11.4466   -0.0000 </r>
       <r>   11.7687   -0.0000 </r>
       <r>   14.4408   -0.0000 </r>
       <r>   15.0293   -0.0000 </r>
       <r>   15.4538   -0.0000 </r>
       <r>   15.8261   -0.0000 </r>
       <r>   17.4765    0.0000 </r>
       <r>   18.2171    0.0000 </r>
      </set>
      <set comment="kpoint 36">
       <r>   -0.4954    1.0000 </r>
       <r>    1.9408    1.0000 </r>
       <r>    6.5986    1.0000 </r>
       <r>    8.6392    1.0000 </r>
       <r>    8.7184    1.0000 </r>
       <r>   10.7702   -0.0342 </r>
       <r>   10.8716   -0.0209 </r>
       <r>   11.8283   -0.0000 </r>
       <r>   14.1496   -0.0000 </r>
       <r>   15.3130   -0.0000 </r>
       <r>   15.3568   -0.0000 </r>
       <r>   16.4618    0.0000 </r>
       <r>   17.6358    0.0000 </r>
       <r>   17.9717    0.0000 </r>
      </set>
      <set comment="kpoint 37">
       <r>   -0.0970    1.0000 </r>
       <r>    1.3661    1.0000 </r>
       <r>    6.9623    1.0000 </r>
       <r>    8.2572    1.0000 </r>
       <r>    9.0001    1.0000 </r>
       <r>   10.3394    1.0265 </r>
       <r>   11.0114   -0.0022 </r>
       <r>   11.7618   -0.0000 </r>
       <r>   14.0604   -0.0000 </r>
       <r>   14.8521   -0.0000 </r>
       <r>   15.7272   -0.0000 </r>
       <r>   17.0958    0.0000 </r>
       <r>   17.2798    0.0000 </r>
       <r>   18.7297    0.0000 </r>
      </set>
      <set comment="kpoint 38">
       <r>    0.3464    1.0000 </r>
       <r>    0.8343    1.0000 </r>
       <r>    7.3637    1.0000 </r>
       <r>    7.7983    1.0000 </r>
       <r>    9.4037    1.0000 </r>
       <r>    9.8501    1.0000 </r>
       <r>   11.2943   -0.0000 </r>
       <r>   11.5652   -0.0000 </r>
       <r>   14.1819   -0.0000 </r>
       <r>   14.4637   -0.0000 </r>
       <r>   16.1408    0.0000 </r>
       <r>   16.5973    0.0000 </r>
       <r>   17.8890    0.0000 </r>
       <r>   18.4085    0.0000 </r>
      </set>
      <set comment="kpoint 39">
       <r>   -1.4620    1.0000 </r>
       <r>    4.7973    1.0000 </r>
       <r>    4.7973    1.0000 </r>
       <r>    7.7704    1.0000 </r>
       <r>    9.3113    1.0000 </r>
       <r>   11.1737   -0.0000 </r>
       <r>   12.3446   -0.0000 </r>
       <r>   12.3446   -0.0000 </r>
       <r>   13.5727   -0.0000 </r>
       <r>   13.5727   -0.0000 </r>
       <r>   16.1157    0.0000 </r>
       <r>   16.1157    0.0000 </r>
       <r>   17.9470    0.0000 </r>
       <r>   19.4624    0.0000 </r>
      </set>
      <set comment="kpoint 40">
       <r>   -1.2491    1.0000 </r>
       <r>    4.0676    1.0000 </r>
       <r>    4.9966    1.0000 </r>
       <r>    7.9610    1.0000 </r>
       <r>    9.2585    1.0000 </r>
       <r>   10.7421   -0.0251 </r>
       <r>   12.4575   -0.0000 </r>
       <r>   12.8739   -0.0000 </r>
       <r>   13.3721   -0.0000 </r>
       <r>   13.7685   -0.0000 </r>
       <r>   15.5951   -0.0000 </r>
       <r>   16.3577    0.0000 </r>
       <r>   17.7651    0.0000 </r>
       <r>   18.7552    0.0000 </r>
      </set>
      <set comment="kpoint 41">
       <r>   -0.9894    1.0000 </r>
       <r>    3.3730    1.0000 </r>
       <r>    5.2395    1.0000 </r>
       <r>    8.1940    1.0000 </r>
       <r>    8.9942    1.0000 </r>
       <r>   10.5912    0.2996 </r>
       <r>   12.2146   -0.0000 </r>
       <r>   12.5518   -0.0000 </r>
       <r>   14.0076   -0.0000 </r>
       <r>   14.3966   -0.0000 </r>
       <r>   15.1384   -0.0000 </r>
       <r>   16.6866    0.0000 </r>
       <r>   17.2849    0.0000 </r>
       <r>   18.0926    0.0000 </r>
      </set>
      <set comment="kpoint 42">
       <r>   -0.6833    1.0000 </r>
       <r>    2.7168    1.0000 </r>
       <r>    5.5253    1.0000 </r>
       <r>    8.4697    1.0000 </r>
       <r>    8.5546    1.0000 </r>
       <r>   10.6888    0.0292 </r>
       <r>   11.5971   -0.0000 </r>
       <r>   12.5772   -0.0000 </r>
       <r>   14.2904   -0.0000 </r>
       <r>   14.8103   -0.0000 </r>
       <r>   15.3605   -0.0000 </r>
       <r>   16.7590    0.0000 </r>
       <r>   17.1558    0.0000 </r>
       <r>   17.4702    0.0000 </r>
      </set>
      <set comment="kpoint 43">
       <r>   -0.3312    1.0000 </r>
       <r>    2.1012    1.0000 </r>
       <r>    5.8534    1.0000 </r>
       <r>    8.0549    1.0000 </r>
       <r>    8.7880    1.0000 </r>
       <r>   10.9190   -0.0114 </r>
       <r>   11.0218   -0.0018 </r>
       <r>   12.4738   -0.0000 </r>
       <r>   14.6160   -0.0000 </r>
       <r>   14.6791   -0.0000 </r>
       <r>   16.1708    0.0000 </r>
       <r>   16.2474    0.0000 </r>
       <r>   16.8888    0.0000 </r>
       <r>   17.8553    0.0000 </r>
      </set>
      <set comment="kpoint 44">
       <r>    0.0665    1.0000 </r>
       <r>    1.5274    1.0000 </r>
       <r>    6.2226    1.0000 </r>
       <r>    7.5549    1.0000 </r>
       <r>    9.1491    1.0000 </r>
       <r>   10.4893    0.7154 </r>
       <r>   11.2191   -0.0000 </r>
       <r>   12.2327   -0.0000 </r>
       <r>   14.7595   -0.0000 </r>
       <r>   14.9849   -0.0000 </r>
       <r>   15.7725   -0.0000 </r>
       <r>   16.3492    0.0000 </r>
       <r>   16.7967    0.0000 </r>
       <r>   18.3211    0.0000 </r>
      </set>
      <set comment="kpoint 45">
       <r>    0.5093    1.0000 </r>
       <r>    0.9964    1.0000 </r>
       <r>    6.6314    1.0000 </r>
       <r>    7.0771    1.0000 </r>
       <r>    9.5529    1.0000 </r>
       <r>    9.9997    1.0004 </r>
       <r>   11.5576   -0.0000 </r>
       <r>   11.9080   -0.0000 </r>
       <r>   15.0014   -0.0000 </r>
       <r>   15.3503   -0.0000 </r>
       <r>   15.3969   -0.0000 </r>
       <r>   15.8516   -0.0000 </r>
       <r>   17.3212    0.0000 </r>
       <r>   17.8183    0.0000 </r>
      </set>
      <set comment="kpoint 46">
       <r>   -1.0366    1.0000 </r>
       <r>    4.2689    1.0000 </r>
       <r>    4.2689    1.0000 </r>
       <r>    8.1517    1.0000 </r>
       <r>    8.9510    1.0000 </r>
       <r>   10.5681    0.3915 </r>
       <r>   13.0688   -0.0000 </r>
       <r>   13.0688   -0.0000 </r>
       <r>   13.4288   -0.0000 </r>
       <r>   13.4288   -0.0000 </r>
       <r>   15.8957   -0.0000 </r>
       <r>   15.8957   -0.0000 </r>
       <r>   18.0506    0.0000 </r>
       <r>   18.2962    0.0000 </r>
      </set>
      <set comment="kpoint 47">
       <r>   -0.7774    1.0000 </r>
       <r>    3.5760    1.0000 </r>
       <r>    4.5142    1.0000 </r>
       <r>    8.3849    1.0000 </r>
       <r>    8.4712    1.0000 </r>
       <r>   10.6359    0.1477 </r>
       <r>   12.4088   -0.0000 </r>
       <r>   13.3069   -0.0000 </r>
       <r>   13.4163   -0.0000 </r>
       <r>   14.3446   -0.0000 </r>
       <r>   15.5464   -0.0000 </r>
       <r>   16.3364    0.0000 </r>
       <r>   17.3862    0.0000 </r>
       <r>   18.1627    0.0000 </r>
      </set>
      <set comment="kpoint 48">
       <r>   -0.4719    1.0000 </r>
       <r>    2.9213    1.0000 </r>
       <r>    4.8030    1.0000 </r>
       <r>    7.9311    1.0000 </r>
       <r>    8.6609    1.0000 </r>
       <r>   10.8381   -0.0286 </r>
       <r>   11.7907   -0.0000 </r>
       <r>   13.2729   -0.0000 </r>
       <r>   13.5882   -0.0000 </r>
       <r>   15.1255   -0.0000 </r>
       <r>   15.3865   -0.0000 </r>
       <r>   16.7630    0.0000 </r>
       <r>   16.9926    0.0000 </r>
       <r>   17.7266    0.0000 </r>
      </set>
      <set comment="kpoint 49">
       <r>   -0.1205    1.0000 </r>
       <r>    2.3070    1.0000 </r>
       <r>    5.1348    1.0000 </r>
       <r>    7.3888    1.0000 </r>
       <r>    8.9795    1.0000 </r>
       <r>   11.1175   -0.0002 </r>
       <r>   11.2150   -0.0000 </r>
       <r>   12.9879   -0.0000 </r>
       <r>   13.9128   -0.0000 </r>
       <r>   15.4344   -0.0000 </r>
       <r>   15.7410   -0.0000 </r>
       <r>   16.1817    0.0000 </r>
       <r>   17.2411    0.0000 </r>
       <r>   17.8909    0.0000 </r>
      </set>
      <set comment="kpoint 50">
       <r>    0.2764    1.0000 </r>
       <r>    1.7344    1.0000 </r>
       <r>    5.5087    1.0000 </r>
       <r>    6.8675    1.0000 </r>
       <r>    9.3408    1.0000 </r>
       <r>   10.6821    0.0404 </r>
       <r>   11.4497   -0.0000 </r>
       <r>   12.6166   -0.0000 </r>
       <r>   14.2809   -0.0000 </r>
       <r>   15.6407   -0.0000 </r>
       <r>   15.6424   -0.0000 </r>
       <r>   16.2550    0.0000 </r>
       <r>   16.7694    0.0000 </r>
       <r>   17.7178    0.0000 </r>
      </set>
      <set comment="kpoint 51">
       <r>    0.7183    1.0000 </r>
       <r>    1.2045    1.0000 </r>
       <r>    5.9236    1.0000 </r>
       <r>    6.3774    1.0000 </r>
       <r>    9.7450    1.0000 </r>
       <r>   10.1921    1.0164 </r>
       <r>   11.8205   -0.0000 </r>
       <r>   12.2160   -0.0000 </r>
       <r>   14.6917   -0.0000 </r>
       <r>   15.1456   -0.0000 </r>
       <r>   15.9517   -0.0000 </r>
       <r>   16.3343    0.0000 </r>
       <r>   16.7356    0.0000 </r>
       <r>   17.2182    0.0000 </r>
      </set>
      <set comment="kpoint 52">
       <r>   -0.5189    1.0000 </r>
       <r>    3.8234    1.0000 </r>
       <r>    3.8234    1.0000 </r>
       <r>    7.8894    1.0000 </r>
       <r>    8.6185    1.0000 </r>
       <r>   10.8079   -0.0340 </r>
       <r>   12.6463   -0.0000 </r>
       <r>   12.6463   -0.0000 </r>
       <r>   14.1576   -0.0000 </r>
       <r>   14.1576   -0.0000 </r>
       <r>   16.1632    0.0000 </r>
       <r>   16.1632    0.0000 </r>
       <r>   16.7211    0.0000 </r>
       <r>   18.7246    0.0000 </r>
      </set>
      <set comment="kpoint 53">
       <r>   -0.2141    1.0000 </r>
       <r>    3.1706    1.0000 </r>
       <r>    4.1149    1.0000 </r>
       <r>    7.3049    1.0000 </r>
       <r>    8.8947    1.0000 </r>
       <r>   11.0568   -0.0008 </r>
       <r>   12.0275   -0.0000 </r>
       <r>   12.9269   -0.0000 </r>
       <r>   13.8274   -0.0000 </r>
       <r>   14.7474   -0.0000 </r>
       <r>   16.0974    0.0000 </r>
       <r>   16.1897    0.0000 </r>
       <r>   17.0124    0.0000 </r>
       <r>   18.1943    0.0000 </r>
      </set>
      <set comment="kpoint 54">
       <r>    0.1365    1.0000 </r>
       <r>    2.5580    1.0000 </r>
       <r>    4.4499    1.0000 </r>
       <r>    6.7404    1.0000 </r>
       <r>    9.2135    1.0000 </r>
       <r>   11.3621   -0.0000 </r>
[...]
       <r>    3.0326    1.0000 </r>
       <r>    4.4264    1.0000 </r>
       <r>    4.4264    1.0000 </r>
       <r>    5.2032    1.0000 </r>
       <r>    6.1527    1.0000 </r>
       <r>    6.9215    1.0000 </r>
       <r>    6.9215    1.0000 </r>
       <r>    8.2836    1.0000 </r>
       <r>   20.1253    0.0000 </r>
       <r>   20.7848    0.0000 </r>
       <r>   20.7848    0.0000 </r>
       <r>   21.5130    0.0000 </r>
       <r>   21.5130    0.0000 </r>
       <r>   21.6708    0.0000 </r>
      </set>
      <set comment="kpoint 281">
       <r>    3.4593    1.0000 </r>
       <r>    3.9256    1.0000 </r>
       <r>    4.8149    1.0000 </r>
       <r>    5.1600    1.0000 </r>
       <r>    6.1075    1.0000 </r>
       <r>    6.4499    1.0000 </r>
       <r>    7.3259    1.0000 </r>
       <r>    7.7816    1.0000 </r>
       <r>   20.4659    0.0000 </r>
       <r>   20.7291    0.0000 </r>
       <r>   21.5329    0.0000 </r>
       <r>   21.6349    0.0000 </r>
       <r>   21.7831    0.0000 </r>
       <r>   22.0066    0.0000 </r>
      </set>
      <set comment="kpoint 282">
       <r>    3.8809    1.0000 </r>
       <r>    4.3376    1.0000 </r>
       <r>    4.3376    1.0000 </r>
       <r>    4.7709    1.0000 </r>
       <r>    6.4055    1.0000 </r>
       <r>    6.8334    1.0000 </r>
       <r>    6.8334    1.0000 </r>
       <r>    7.2821    1.0000 </r>
       <r>   20.8729    0.0000 </r>
       <r>   21.2354    0.0000 </r>
       <r>   21.2355    0.0000 </r>
       <r>   21.6445    0.0000 </r>
       <r>   22.3855    0.0000 </r>
       <r>   22.4608    0.0000 </r>
      </set>
      <set comment="kpoint 283">
       <r>    3.4142    1.0000 </r>
       <r>    4.7708    1.0000 </r>
       <r>    4.7708    1.0000 </r>
       <r>    4.7708    1.0000 </r>
       <r>    6.4058    1.0000 </r>
       <r>    6.4058    1.0000 </r>
       <r>    6.4058    1.0000 </r>
       <r>    7.7384    1.0000 </r>
       <r>   21.2329    0.0000 </r>
       <r>   21.2329    0.0000 </r>
       <r>   21.2329    0.0000 </r>
       <r>   21.9796    0.0000 </r>
       <r>   21.9796    0.0000 </r>
       <r>   21.9800    0.0000 </r>
      </set>
      <set comment="kpoint 284">
       <r>    3.8360    1.0000 </r>
       <r>    4.2931    1.0000 </r>
       <r>    5.0731    1.0000 </r>
       <r>    5.0731    1.0000 </r>
       <r>    6.0176    1.0000 </r>
       <r>    6.0176    1.0000 </r>
       <r>    6.7896    1.0000 </r>
       <r>    7.2386    1.0000 </r>
       <r>   21.4850    0.0000 </r>
       <r>   21.4850    0.0000 </r>
       <r>   22.1325    0.0000 </r>
       <r>   22.1331    0.0000 </r>
       <r>   22.2664    0.0000 </r>
       <r>   22.3176    0.0000 </r>
      </set>
      <set comment="kpoint 285">
       <r>    4.2487    1.0000 </r>
       <r>    4.6828    1.0000 </r>
       <r>    4.6828    1.0000 </r>
       <r>    5.0297    1.0000 </r>
       <r>    5.9724    1.0000 </r>
       <r>    6.3167    1.0000 </r>
       <r>    6.3167    1.0000 </r>
       <r>    6.7455    1.0000 </r>
       <r>   21.9194    0.0000 </r>
       <r>   22.1907    0.0000 </r>
       <r>   22.1947    0.0000 </r>
       <r>   22.5861    0.0000 </r>
       <r>   22.6426    0.0000 </r>
       <r>   22.6937    0.0000 </r>
      </set>
      <set comment="kpoint 286">
       <r>    4.6387    1.0000 </r>
       <r>    4.9863    1.0000 </r>
       <r>    4.9863    1.0000 </r>
       <r>    4.9863    1.0000 </r>
       <r>    5.9272    1.0000 </r>
       <r>    5.9272    1.0000 </r>
       <r>    5.9272    1.0000 </r>
       <r>    6.2721    1.0000 </r>
       <r>   22.7978    0.0000 </r>
       <r>   22.8017    0.0000 </r>
       <r>   22.8219    0.0000 </r>
       <r>   22.9049    0.0000 </r>
       <r>   22.9167    0.0000 </r>
       <r>   22.9684    0.0000 </r>
      </set>
     </set>
    </set>
   </array>
  </eigenvalues>
  <separator name="orbital magnetization" >
   <v name="MAGDIPOLOUT">      0.00000000      0.00000000      0.00000000</v>
  </separator>
  <dos>
   <i name="efermi">     10.54219285 </i>
   <total>
    <array>
     <dimension dim="1">gridpoints</dimension>
     <dimension dim="2">spin</dimension>
     <field>energy</field>
     <field>total</field>
     <field>integrated</field>
     <set>
      <set comment="spin 1">
       <r>    -4.2224     0.0000     0.0000 </r>
       <r>    -4.1251     0.0000     0.0000 </r>
       <r>    -4.0278     0.0000     0.0000 </r>
       <r>    -3.9305     0.0000     0.0000 </r>
       <r>    -3.8332    -0.0000    -0.0000 </r>
       <r>    -3.7359    -0.0000    -0.0000 </r>
       <r>    -3.6386    -0.0000    -0.0000 </r>
       <r>    -3.5412    -0.0000    -0.0000 </r>
       <r>    -3.4439    -0.0000    -0.0000 </r>
       <r>    -3.3466    -0.0000    -0.0000 </r>
       <r>    -3.2493    -0.0000    -0.0000 </r>
       <r>    -3.1520    -0.0000    -0.0000 </r>
       <r>    -3.0547    -0.0000    -0.0000 </r>
       <r>    -2.9574    -0.0000    -0.0000 </r>
       <r>    -2.8601    -0.0000    -0.0000 </r>
       <r>    -2.7628    -0.0000    -0.0000 </r>
       <r>    -2.6655    -0.0001    -0.0000 </r>
       <r>    -2.5682    -0.0007    -0.0001 </r>
       <r>    -2.4709    -0.0027    -0.0003 </r>
       <r>    -2.3736    -0.0042    -0.0008 </r>
       <r>    -2.2763     0.0056    -0.0002 </r>
       <r>    -2.1790     0.0410     0.0038 </r>
       <r>    -2.0817     0.0981     0.0133 </r>
       <r>    -1.9844     0.1547     0.0284 </r>
       <r>    -1.8871     0.1978     0.0476 </r>
       <r>    -1.7898     0.2301     0.0700 </r>
       <r>    -1.6925     0.2570     0.0950 </r>
       <r>    -1.5952     0.2829     0.1226 </r>
       <r>    -1.4979     0.3053     0.1523 </r>
       <r>    -1.4006     0.3253     0.1839 </r>
       <r>    -1.3033     0.3494     0.2179 </r>
       <r>    -1.2060     0.3677     0.2537 </r>
       <r>    -1.1087     0.3796     0.2906 </r>
       <r>    -1.0114     0.4046     0.3300 </r>
       <r>    -0.9141     0.4267     0.3715 </r>
       <r>    -0.8168     0.4298     0.4133 </r>
       <r>    -0.7195     0.4447     0.4566 </r>
       <r>    -0.6222     0.4749     0.5028 </r>
       <r>    -0.5249     0.4908     0.5506 </r>
       <r>    -0.4276     0.4907     0.5983 </r>
       <r>    -0.3303     0.4960     0.6466 </r>
       <r>    -0.2330     0.5285     0.6980 </r>
       <r>    -0.1357     0.5625     0.7528 </r>
       <r>    -0.0384     0.5507     0.8063 </r>
       <r>     0.0589     0.5353     0.8584 </r>
       <r>     0.1562     0.5741     0.9143 </r>
       <r>     0.2536     0.6159     0.9742 </r>
       <r>     0.3509     0.6146     1.0340 </r>
       <r>     0.4482     0.6036     1.0928 </r>
       <r>     0.5455     0.6098     1.1521 </r>
       <r>     0.6428     0.6290     1.2133 </r>
       <r>     0.7401     0.6601     1.2775 </r>
       <r>     0.8374     0.6892     1.3446 </r>
       <r>     0.9347     0.6887     1.4116 </r>
       <r>     1.0320     0.6566     1.4755 </r>
       <r>     1.1293     0.6494     1.5387 </r>
       <r>     1.2266     0.7149     1.6082 </r>
       <r>     1.3239     0.7767     1.6838 </r>
       <r>     1.4212     0.7497     1.7568 </r>
       <r>     1.5185     0.7016     1.8250 </r>
       <r>     1.6158     0.7149     1.8946 </r>
       <r>     1.7131     0.7614     1.9687 </r>
       <r>     1.8104     0.7884     2.0454 </r>
       <r>     1.9077     0.7896     2.1222 </r>
       <r>     2.0050     0.8063     2.2007 </r>
       <r>     2.1023     0.8239     2.2808 </r>
       <r>     2.1996     0.7912     2.3578 </r>
       <r>     2.2969     0.7694     2.4327 </r>
       <r>     2.3942     0.8114     2.5116 </r>
       <r>     2.4915     0.8711     2.5964 </r>
       <r>     2.5888     0.9132     2.6853 </r>
       <r>     2.6861     0.8982     2.7727 </r>
       <r>     2.7834     0.8302     2.8534 </r>
       <r>     2.8807     0.8066     2.9319 </r>
       <r>     2.9780     0.8628     3.0159 </r>
       <r>     3.0753     0.9408     3.1074 </r>
       <r>     3.1726     0.9746     3.2023 </r>
       <r>     3.2699     0.9342     3.2932 </r>
       <r>     3.3672     0.8921     3.3800 </r>
       <r>     3.4645     0.9274     3.4702 </r>
       <r>     3.5618     0.9658     3.5642 </r>
       <r>     3.6591     0.9377     3.6554 </r>
       <r>     3.7564     0.9230     3.7452 </r>
       <r>     3.8537     0.9787     3.8405 </r>
       <r>     3.9510     1.0489     3.9425 </r>
       <r>     4.0484     1.0636     4.0460 </r>
       <r>     4.1457     1.0187     4.1451 </r>
       <r>     4.2430     0.9680     4.2393 </r>
       <r>     4.3403     0.9480     4.3316 </r>
       <r>     4.4376     0.9942     4.4283 </r>
       <r>     4.5349     1.1024     4.5356 </r>
       <r>     4.6322     1.1629     4.6487 </r>
       <r>     4.7295     1.1232     4.7580 </r>
       <r>     4.8268     1.0727     4.8624 </r>
       <r>     4.9241     1.0746     4.9669 </r>
       <r>     5.0214     1.1057     5.0745 </r>
       <r>     5.1187     1.1534     5.1868 </r>
       <r>     5.2160     1.2082     5.3043 </r>
       <r>     5.3133     1.1973     5.4208 </r>
       <r>     5.4106     1.1179     5.5296 </r>
       <r>     5.5079     1.0980     5.6364 </r>
       <r>     5.6052     1.1383     5.7472 </r>
       <r>     5.7025     1.1052     5.8547 </r>
       <r>     5.7998     1.0225     5.9542 </r>
       <r>     5.8971     1.0052     6.0520 </r>
       <r>     5.9944     1.0516     6.1544 </r>
       <r>     6.0917     1.0995     6.2614 </r>
       <r>     6.1890     1.1648     6.3747 </r>
       <r>     6.2863     1.2632     6.4976 </r>
       <r>     6.3836     1.2684     6.6210 </r>
       <r>     6.4809     1.1322     6.7312 </r>
       <r>     6.5782     1.0347     6.8319 </r>
       <r>     6.6755     1.1174     6.9406 </r>
       <r>     6.7728     1.3017     7.0673 </r>
       <r>     6.8701     1.3876     7.2023 </r>
       <r>     6.9674     1.3219     7.3309 </r>
       <r>     7.0647     1.2516     7.4527 </r>
       <r>     7.1620     1.2396     7.5733 </r>
       <r>     7.2593     1.2803     7.6979 </r>
       <r>     7.3566     1.4054     7.8346 </r>
       <r>     7.4539     1.4766     7.9783 </r>
       <r>     7.5512     1.3301     8.1077 </r>
       <r>     7.6485     1.1484     8.2195 </r>
       <r>     7.7458     1.1992     8.3361 </r>
       <r>     7.8432     1.3508     8.4676 </r>
       <r>     7.9405     1.3425     8.5982 </r>
       <r>     8.0378     1.2526     8.7201 </r>
       <r>     8.1351     1.2104     8.8379 </r>
       <r>     8.2324     1.1755     8.9522 </r>
       <r>     8.3297     1.1715     9.0662 </r>
       <r>     8.4270     1.2366     9.1866 </r>
       <r>     8.5243     1.3024     9.3133 </r>
       <r>     8.6216     1.2722     9.4371 </r>
       <r>     8.7189     1.1955     9.5534 </r>
       <r>     8.8162     1.2416     9.6742 </r>
       <r>     8.9135     1.3695     9.8075 </r>
       <r>     9.0108     1.3787     9.9416 </r>
       <r>     9.1081     1.3101    10.0691 </r>
       <r>     9.2054     1.3568    10.2011 </r>
       <r>     9.3027     1.4739    10.3445 </r>
       <r>     9.4000     1.5072    10.4912 </r>
       <r>     9.4973     1.5093    10.6380 </r>
       <r>     9.5946     1.5375    10.7876 </r>
       <r>     9.6919     1.5100    10.9346 </r>
       <r>     9.7892     1.3988    11.0707 </r>
       <r>     9.8865     1.2691    11.1942 </r>
       <r>     9.9838     1.1800    11.3090 </r>
       <r>    10.0811     1.1632    11.4222 </r>
       <r>    10.1784     1.2252    11.5414 </r>
       <r>    10.2757     1.2828    11.6662 </r>
       <r>    10.3730     1.2691    11.7897 </r>
       <r>    10.4703     1.2378    11.9101 </r>
       <r>    10.5676     1.2568    12.0324 </r>
       <r>    10.6649     1.3048    12.1594 </r>
       <r>    10.7622     1.3415    12.2899 </r>
       <r>    10.8595     1.3854    12.4247 </r>
       <r>    10.9568     1.3995    12.5609 </r>
       <r>    11.0541     1.3939    12.6965 </r>
       <r>    11.1514     1.4978    12.8422 </r>
       <r>    11.2487     1.6623    13.0040 </r>
       <r>    11.3460     1.7197    13.1713 </r>
       <r>    11.4433     1.6432    13.3312 </r>
       <r>    11.5406     1.4875    13.4759 </r>
       <r>    11.6379     1.3556    13.6078 </r>
       <r>    11.7353     1.3371    13.7380 </r>
       <r>    11.8326     1.3864    13.8729 </r>
       <r>    11.9299     1.4281    14.0118 </r>
       <r>    12.0272     1.4495    14.1529 </r>
       <r>    12.1245     1.4843    14.2973 </r>
       <r>    12.2218     1.5825    14.4513 </r>
       <r>    12.3191     1.6576    14.6126 </r>
       <r>    12.4164     1.5966    14.7679 </r>
       <r>    12.5137     1.4993    14.9138 </r>
       <r>    12.6110     1.4212    15.0521 </r>
       <r>    12.7083     1.2713    15.1758 </r>
       <r>    12.8056     1.1514    15.2878 </r>
       <r>    12.9029     1.2429    15.4087 </r>
       <r>    13.0002     1.4478    15.5496 </r>
       <r>    13.0975     1.6066    15.7059 </r>
       <r>    13.1948     1.7107    15.8724 </r>
       <r>    13.2921     1.6865    16.0365 </r>
       <r>    13.3894     1.4723    16.1798 </r>
       <r>    13.4867     1.2897    16.3052 </r>
       <r>    13.5840     1.3573    16.4373 </r>
       <r>    13.6813     1.5144    16.5847 </r>
       <r>    13.7786     1.5480    16.7353 </r>
       <r>    13.8759     1.5366    16.8848 </r>
       <r>    13.9732     1.5993    17.0404 </r>
       <r>    14.0705     1.6325    17.1993 </r>
       <r>    14.1678     1.5226    17.3474 </r>
       <r>    14.2651     1.4575    17.4892 </r>
       <r>    14.3624     1.6095    17.6459 </r>
       <r>    14.4597     1.7293    17.8141 </r>
       <r>    14.5570     1.6242    17.9722 </r>
       <r>    14.6543     1.5266    18.1207 </r>
       <r>    14.7516     1.5794    18.2744 </r>
       <r>    14.8489     1.6417    18.4341 </r>
       <r>    14.9462     1.6349    18.5932 </r>
       <r>    15.0435     1.6409    18.7529 </r>
       <r>    15.1408     1.6725    18.9156 </r>
       <r>    15.2381     1.6246    19.0737 </r>
       <r>    15.3354     1.5558    19.2251 </r>
       <r>    15.4327     1.6010    19.3809 </r>
       <r>    15.5301     1.6848    19.5448 </r>
       <r>    15.6274     1.7522    19.7153 </r>
       <r>    15.7247     1.8612    19.8964 </r>
       <r>    15.8220     1.8622    20.0776 </r>
       <r>    15.9193     1.6389    20.2371 </r>
       <r>    16.0166     1.4973    20.3828 </r>
       <r>    16.1139     1.6375    20.5421 </r>
       <r>    16.2112     1.7839    20.7157 </r>
       <r>    16.3085     1.7461    20.8856 </r>
       <r>    16.4058     1.6907    21.0501 </r>
       <r>    16.5031     1.7780    21.2231 </r>
       <r>    16.6004     1.8951    21.4075 </r>
       <r>    16.6977     1.8566    21.5881 </r>
       <r>    16.7950     1.7186    21.7553 </r>
       <r>    16.8923     1.6889    21.9197 </r>
       <r>    16.9896     1.8549    22.1002 </r>
       <r>    17.0869     2.0629    22.3009 </r>
       <r>    17.1842     2.0912    22.5044 </r>
       <r>    17.2815     1.9822    22.6973 </r>
       <r>    17.3788     1.9448    22.8865 </r>
       <r>    17.4761     2.0035    23.0814 </r>
       <r>    17.5734     2.0090    23.2769 </r>
       <r>    17.6707     1.9629    23.4679 </r>
       <r>    17.7680     2.0086    23.6634 </r>
       <r>    17.8653     2.1144    23.8691 </r>
       <r>    17.9626     2.1621    24.0795 </r>
       <r>    18.0599     2.1304    24.2868 </r>
       <r>    18.1572     2.0045    24.4818 </r>
       <r>    18.2545     1.7968    24.6566 </r>
       <r>    18.3518     1.6817    24.8203 </r>
       <r>    18.4491     1.8197    24.9973 </r>
       <r>    18.5464     1.9614    25.1882 </r>
       <r>    18.6437     1.8208    25.3654 </r>
       <r>    18.7410     1.6356    25.5245 </r>
       <r>    18.8383     1.6555    25.6856 </r>
       <r>    18.9356     1.7328    25.8542 </r>
       <r>    19.0329     1.7034    26.0199 </r>
       <r>    19.1302     1.5591    26.1716 </r>
       <r>    19.2275     1.3300    26.3011 </r>
       <r>    19.3249     1.1435    26.4123 </r>
       <r>    19.4222     1.1211    26.5214 </r>
       <r>    19.5195     1.1302    26.6314 </r>
       <r>    19.6168     1.0228    26.7309 </r>
       <r>    19.7141     0.8844    26.8170 </r>
       <r>    19.8114     0.8229    26.8970 </r>
       <r>    19.9087     0.8608    26.9808 </r>
       <r>    20.0060     0.8932    27.0677 </r>
       <r>    20.1033     0.7635    27.1420 </r>
       <r>    20.2006     0.5638    27.1968 </r>
       <r>    20.2979     0.5135    27.2468 </r>
       <r>    20.3952     0.6203    27.3072 </r>
       <r>    20.4925     0.7195    27.3772 </r>
       <r>    20.5898     0.6928    27.4446 </r>
       <r>    20.6871     0.5705    27.5001 </r>
       <r>    20.7844     0.4723    27.5461 </r>
       <r>    20.8817     0.4320    27.5881 </r>
       <r>    20.9790     0.4069    27.6277 </r>
       <r>    21.0763     0.3720    27.6639 </r>
       <r>    21.1736     0.3218    27.6952 </r>
       <r>    21.2709     0.2982    27.7242 </r>
       <r>    21.3682     0.3247    27.7558 </r>
       <r>    21.4655     0.3615    27.7910 </r>
       <r>    21.5628     0.3588    27.8259 </r>
       <r>    21.6601     0.3029    27.8554 </r>
       <r>    21.7574     0.2213    27.8769 </r>
       <r>    21.8547     0.1546    27.8919 </r>
       <r>    21.9520     0.1344    27.9050 </r>
       <r>    22.0493     0.1495    27.9196 </r>
       <r>    22.1466     0.1649    27.9356 </r>
       <r>    22.2439     0.1565    27.9508 </r>
       <r>    22.3412     0.1190    27.9624 </r>
       <r>    22.4385     0.0771    27.9699 </r>
       <r>    22.5358     0.0586    27.9756 </r>
       <r>    22.6331     0.0625    27.9817 </r>
       <r>    22.7304     0.0654    27.9881 </r>
       <r>    22.8277     0.0553    27.9935 </r>
       <r>    22.9250     0.0396    27.9973 </r>
       <r>    23.0223     0.0226    27.9995 </r>
       <r>    23.1197     0.0073    28.0002 </r>
       <r>    23.2170    -0.0004    28.0002 </r>
       <r>    23.3143    -0.0013    28.0001 </r>
       <r>    23.4116    -0.0005    28.0000 </r>
       <r>    23.5089    -0.0001    28.0000 </r>
       <r>    23.6062    -0.0000    28.0000 </r>
       <r>    23.7035    -0.0000    28.0000 </r>
       <r>    23.8008    -0.0000    28.0000 </r>
       <r>    23.8981    -0.0000    28.0000 </r>
       <r>    23.9954    -0.0000    28.0000 </r>
       <r>    24.0927    -0.0000    28.0000 </r>
       <r>    24.1900    -0.0000    28.0000 </r>
       <r>    24.2873     0.0000    28.0000 </r>
       <r>    24.3846     0.0000    28.0000 </r>
       <r>    24.4819     0.0000    28.0000 </r>
       <r>    24.5792     0.0000    28.0000 </r>
       <r>    24.6765     0.0000    28.0000 </r>
       <r>    24.7738     0.0000    28.0000 </r>
       <r>    24.8711     0.0000    28.0000 </r>
       <r>    24.9684     0.0000    28.0000 </r>
      </set>
     </set>
    </array>
   </total>
  </dos>
 </calculation>
 <structure name="finalpos" >
  <crystal>
   <varray name="basis" >
    <v>       3.74941019       0.00000000       0.00000000 </v>
    <v>      -0.00000000       3.74941019       0.00000000 </v>
    <v>       0.00000000       0.00000000       3.74941019 </v>
   </varray>
   <i name="volume">     52.70949642 </i>
   <varray name="rec_basis" >
    <v>       0.26670862       0.00000000      -0.00000000 </v>
    <v>       0.00000000       0.26670862       0.00000000 </v>
    <v>      -0.00000000      -0.00000000       0.26670862 </v>
   </varray>
  </crystal>
  <varray name="positions" >
   <v>       0.00000000       0.00000000       0.00000000 </v>
   <v>       0.00000000       0.50000000       0.50000000 </v>
   <v>       0.50000000       0.00000000       0.50000000 </v>
   <v>       0.50000000       0.50000000       0.00000000 </v>
  </varray>
 </structure>
</modeling>
