
4 atoms
1 atom types
   0.0000000000    3.9636478119 xlo xhi
   0.0000000000    3.9636478119 ylo yhi
   0.0000000000    3.9636478119 zlo zhi
   0.0000000000   -0.0000000000   -0.0000000000 xy xz yz

Atoms # atomic

     1      1    0.0000000000    0.0000000000    0.0000000000
     2      1    0.0000000000    1.9818239059    1.9818239059
     3      1    1.9818239059    1.9818239059    0.0000000000
     4      1    1.9818239059    0.0000000000    1.9818239059
