ITEM: TIMESTEP
0
ITEM: NUMBER OF ATOMS
4
ITEM: BOX BOUNDS xy xz yz pp pp pp
0.0000000000000000e+00 3.9636478119000000e+00 0.0000000000000000e+00
0.0000000000000000e+00 3.9636478119000000e+00 -0.0000000000000000e+00
0.0000000000000000e+00 3.9636478119000000e+00 -0.0000000000000000e+00
ITEM: ATOMS id type xs ys zs fx fy fz
1 1 0 0 0 -2.8297e-10 -2.8297e-10 -2.8297e-10
3 1 0.5 0.5 0 2.82971e-10 2.82971e-10 -2.82972e-10
2 1 0 0.5 0.5 -2.82972e-10 2.82971e-10 2.82971e-10
4 1 0.5 0 0.5 2.82971e-10 -2.82972e-10 2.82971e-10
ITEM: TIMESTEP
1
ITEM: NUMBER OF ATOMS
4
ITEM: BOX BOUNDS xy xz yz pp pp pp
0.0000000000000000e+00 3.9636478119000000e+00 0.0000000000000000e+00
0.0000000000000000e+00 3.9636478119000000e+00 -0.0000000000000000e+00
0.0000000000000000e+00 3.9636478119000000e+00 -0.0000000000000000e+00
ITEM: ATOMS id type xs ys zs fx fy fz
2 1 1 0.5 0.5 6.75154e-15 -4.14425e-15 -5.0307e-15
3 1 0.5 0.5 1 -4.56579e-15 -4.5762e-15 6.75848e-15
4 1 0.5 1 0.5 -4.13558e-15 6.71685e-15 -4.95437e-15
1 1 1 1 1 1.88044e-15 1.97412e-15 3.10169e-15
