
4 atoms
1 atom types
   0.0000000000    4.0319999997 xlo xhi
   0.0000000000    4.0319999997 ylo yhi
   0.0000000000    4.0317983946 zlo zhi
   0.0000000000    0.0000000000   -0.0403200000 xy xz yz

Atoms # atomic

     1      1    0.0000000000    0.0000000000    0.0000000000
     2      1    0.0000000000    1.9958399998    2.0158991973
     3      1    2.0159999998    2.0159999998    0.0000000000
     4      1    2.0159999998   -0.0201600000    2.0158991973
