ITEM: TIMESTEP
0
ITEM: NUMBER OF ATOMS
4
ITEM: BOX BOUNDS xy xz yz pp pp pp
0.0000000000000000e+00 4.0319999997000000e+00 0.0000000000000000e+00
-4.0320000000000002e-02 4.0319999997000000e+00 0.0000000000000000e+00
0.0000000000000000e+00 4.0317983946000000e+00 -4.0320000000000002e-02
ITEM: ATOMS id type xs ys zs fx fy fz
1 1 0 0 0 -2.31339e-10 -2.3142e-10 -8.60427e-12
2 1 0 0.5 0.5 -2.31339e-10 2.3142e-10 8.6043e-12
3 1 0.5 0.5 0 2.31339e-10 2.3142e-10 8.6043e-12
4 1 0.5 0 0.5 2.31339e-10 -2.3142e-10 -8.60429e-12
ITEM: TIMESTEP
1
ITEM: NUMBER OF ATOMS
4
ITEM: BOX BOUNDS xy xz yz pp pp pp
0.0000000000000000e+00 4.0319999997000000e+00 0.0000000000000000e+00
-4.0320000000000002e-02 4.0319999997000000e+00 0.0000000000000000e+00
0.0000000000000000e+00 4.0317983946000000e+00 -4.0320000000000002e-02
ITEM: ATOMS id type xs ys zs fx fy fz
3 1 0.5 0.5 2.3035e-13 2.76848e-13 -1.19084e-13 -4.11239e-12
4 1 0.5 1 0.5 2.76321e-13 1.19089e-13 4.11186e-12
2 1 1 0.5 0.5 -2.76293e-13 -1.18436e-13 -4.10997e-12
1 1 1 1 1 -2.76917e-13 1.18454e-13 4.11048e-12
